<event>
 4    1  0.1586888E-001  0.1250000E+03  0.7546771E-02  0.1126479E+00
        -11   -1    0    0    0    0  0.00000000000E+00  0.00000000000E+00  0.12500000000E+03  0.12500000000E+03  0.00000000000E+00 0.  1.
         11   -1    0    0    0    0 -0.00000000000E+00 -0.00000000000E+00 -0.12500000000E+03  0.12500000000E+03  0.00000000000E+00 0. -1.
         24    1    1    2    0    0 -0.28859128071E+01 -0.21497008757E+02  0.93205869812E+02  0.12500000000E+03  0.80419002446E+02 0.  1.
        -24    1    1    2    0    0  0.28859128071E+01  0.21497008757E+02 -0.93205869812E+02  0.12500000000E+03  0.80419002446E+02 0. -1.
</event>
<event>
 4    1  0.1586888E-001  0.1250000E+03  0.7546771E-02  0.1126479E+00
        -11   -1    0    0    0    0  0.00000000000E+00  0.00000000000E+00  0.12500000000E+03  0.12500000000E+03  0.00000000000E+00 0.  1.
         11   -1    0    0    0    0 -0.00000000000E+00 -0.00000000000E+00 -0.12500000000E+03  0.12500000000E+03  0.00000000000E+00 0. -1.
         24    1    1    2    0    0 -0.12897827746E+02 -0.38212181245E+02  0.86782828310E+02  0.12500000000E+03  0.80419002446E+02 0.  1.
        -24    1    1    2    0    0  0.12897827746E+02  0.38212181245E+02 -0.86782828310E+02  0.12500000000E+03  0.80419002446E+02 0. -1.
</event>
<event>
 4    1  0.1586888E-001  0.1250000E+03  0.7546771E-02  0.1126479E+00
        -11   -1    0    0    0    0  0.00000000000E+00  0.00000000000E+00  0.12500000000E+03  0.12500000000E+03  0.00000000000E+00 0.  1.
         11   -1    0    0    0    0 -0.00000000000E+00 -0.00000000000E+00 -0.12500000000E+03  0.12500000000E+03  0.00000000000E+00 0. -1.
         24    1    1    2    0    0  0.21581427925E+02  0.46315181063E+02  0.80913101643E+02  0.12500000000E+03  0.80419002446E+02 0.  1.
        -24    1    1    2    0    0 -0.21581427925E+02 -0.46315181063E+02 -0.80913101643E+02  0.12500000000E+03  0.80419002446E+02 0. -1.
</event>
<event>
 4    1  0.1586888E-001  0.1250000E+03  0.7546771E-02  0.1126479E+00
        -11   -1    0    0    0    0  0.00000000000E+00  0.00000000000E+00  0.12500000000E+03  0.12500000000E+03  0.00000000000E+00 0.  1.
         11   -1    0    0    0    0 -0.00000000000E+00 -0.00000000000E+00 -0.12500000000E+03  0.12500000000E+03  0.00000000000E+00 0. -1.
         24    1    1    2    0    0 -0.42241986244E+00  0.26174905641E+02  0.92046074994E+02  0.12500000000E+03  0.80419002446E+02 0.  1.
        -24    1    1    2    0    0  0.42241986244E+00 -0.26174905641E+02 -0.92046074994E+02  0.12500000000E+03  0.80419002446E+02 0. -1.
</event>
<event>
 4    1  0.1586888E-001  0.1250000E+03  0.7546771E-02  0.1126479E+00
        -11   -1    0    0    0    0  0.00000000000E+00  0.00000000000E+00  0.12500000000E+03  0.12500000000E+03  0.00000000000E+00 0.  1.
         11   -1    0    0    0    0 -0.00000000000E+00 -0.00000000000E+00 -0.12500000000E+03  0.12500000000E+03  0.00000000000E+00 0. -1.
         24    1    1    2    0    0 -0.10221278952E+02 -0.31016462343E+02  0.89951590125E+02  0.12500000000E+03  0.80419002446E+02 0.  1.
        -24    1    1    2    0    0  0.10221278952E+02  0.31016462343E+02 -0.89951590125E+02  0.12500000000E+03  0.80419002446E+02 0. -1.
</event>
<event>
 4    1  0.1586888E-001  0.1250000E+03  0.7546771E-02  0.1126479E+00
        -11   -1    0    0    0    0  0.00000000000E+00  0.00000000000E+00  0.12500000000E+03  0.12500000000E+03  0.00000000000E+00 0.  1.
         11   -1    0    0    0    0 -0.00000000000E+00 -0.00000000000E+00 -0.12500000000E+03  0.12500000000E+03  0.00000000000E+00 0. -1.
         24    1    1    2    0    0 -0.34719869892E+02  0.89938208313E+01  0.88721056504E+02  0.12500000000E+03  0.80419002446E+02 0.  1.
        -24    1    1    2    0    0  0.34719869892E+02 -0.89938208313E+01 -0.88721056504E+02  0.12500000000E+03  0.80419002446E+02 0. -1.
</event>
<event>
 4    1  0.1586888E-001  0.1250000E+03  0.7546771E-02  0.1126479E+00
        -11   -1    0    0    0    0  0.00000000000E+00  0.00000000000E+00  0.12500000000E+03  0.12500000000E+03  0.00000000000E+00 0.  1.
         11   -1    0    0    0    0 -0.00000000000E+00 -0.00000000000E+00 -0.12500000000E+03  0.12500000000E+03  0.00000000000E+00 0. -1.
         24    1    1    2    0    0  0.12928879880E+02 -0.17609911060E+02  0.93169303653E+02  0.12500000000E+03  0.80419002446E+02 0.  1.
        -24    1    1    2    0    0 -0.12928879880E+02  0.17609911060E+02 -0.93169303653E+02  0.12500000000E+03  0.80419002446E+02 0. -1.
</event>
<event>
 4    1  0.1586888E-001  0.1250000E+03  0.7546771E-02  0.1126479E+00
        -11   -1    0    0    0    0  0.00000000000E+00  0.00000000000E+00  0.12500000000E+03  0.12500000000E+03  0.00000000000E+00 0.  1.
         11   -1    0    0    0    0 -0.00000000000E+00 -0.00000000000E+00 -0.12500000000E+03  0.12500000000E+03  0.00000000000E+00 0. -1.
         24    1    1    2    0    0 -0.74984840080E+02 -0.35621761681E+02  0.47604074390E+02  0.12500000000E+03  0.80419002446E+02 0. -1.
        -24    1    1    2    0    0  0.74984840080E+02  0.35621761681E+02 -0.47604074390E+02  0.12500000000E+03  0.80419002446E+02 0.  1.
</event>
<event>
 4    1  0.1586888E-001  0.1250000E+03  0.7546771E-02  0.1126479E+00
        -11   -1    0    0    0    0  0.00000000000E+00  0.00000000000E+00  0.12500000000E+03  0.12500000000E+03  0.00000000000E+00 0.  1.
         11   -1    0    0    0    0 -0.00000000000E+00 -0.00000000000E+00 -0.12500000000E+03  0.12500000000E+03  0.00000000000E+00 0. -1.
         24    1    1    2    0    0 -0.18334637685E+02  0.77058884412E+01  0.93606860806E+02  0.12500000000E+03  0.80419002446E+02 0.  1.
        -24    1    1    2    0    0  0.18334637685E+02 -0.77058884412E+01 -0.93606860806E+02  0.12500000000E+03  0.80419002446E+02 0.  0.
</event>
<event>
 4    1  0.1586888E-001  0.1250000E+03  0.7546771E-02  0.1126479E+00
        -11   -1    0    0    0    0  0.00000000000E+00  0.00000000000E+00  0.12500000000E+03  0.12500000000E+03  0.00000000000E+00 0.  1.
         11   -1    0    0    0    0 -0.00000000000E+00 -0.00000000000E+00 -0.12500000000E+03  0.12500000000E+03  0.00000000000E+00 0. -1.
         24    1    1    2    0    0 -0.28273112817E+02  0.27983412701E+02  0.87036450703E+02  0.12500000000E+03  0.80419002446E+02 0.  1.
        -24    1    1    2    0    0  0.28273112817E+02 -0.27983412701E+02 -0.87036450703E+02  0.12500000000E+03  0.80419002446E+02 0.  0.
</event>
<event>
 4    1  0.1586888E-001  0.1250000E+03  0.7546771E-02  0.1126479E+00
        -11   -1    0    0    0    0  0.00000000000E+00  0.00000000000E+00  0.12500000000E+03  0.12500000000E+03  0.00000000000E+00 0.  1.
         11   -1    0    0    0    0 -0.00000000000E+00 -0.00000000000E+00 -0.12500000000E+03  0.12500000000E+03  0.00000000000E+00 0. -1.
         24    1    1    2    0    0  0.13503974806E+02 -0.93534645474E+02 -0.15056453967E+02  0.12500000000E+03  0.80419002446E+02 0. -1.
        -24    1    1    2    0    0 -0.13503974806E+02  0.93534645474E+02  0.15056453967E+02  0.12500000000E+03  0.80419002446E+02 0.  1.
</event>
<event>
 4    1  0.1586888E-001  0.1250000E+03  0.7546771E-02  0.1126479E+00
        -11   -1    0    0    0    0  0.00000000000E+00  0.00000000000E+00  0.12500000000E+03  0.12500000000E+03  0.00000000000E+00 0.  1.
         11   -1    0    0    0    0 -0.00000000000E+00 -0.00000000000E+00 -0.12500000000E+03  0.12500000000E+03  0.00000000000E+00 0. -1.
         24    1    1    2    0    0  0.44361024384E+02  0.17442962279E+02  0.82979675995E+02  0.12500000000E+03  0.80419002446E+02 0.  1.
        -24    1    1    2    0    0 -0.44361024384E+02 -0.17442962279E+02 -0.82979675995E+02  0.12500000000E+03  0.80419002446E+02 0. -1.
</event>
<event>
 4    1  0.1586888E-001  0.1250000E+03  0.7546771E-02  0.1126479E+00
        -11   -1    0    0    0    0  0.00000000000E+00  0.00000000000E+00  0.12500000000E+03  0.12500000000E+03  0.00000000000E+00 0.  1.
         11   -1    0    0    0    0 -0.00000000000E+00 -0.00000000000E+00 -0.12500000000E+03  0.12500000000E+03  0.00000000000E+00 0. -1.
         24    1    1    2    0    0 -0.30130553017E+01  0.59596404308E+02  0.74812927606E+02  0.12500000000E+03  0.80419002446E+02 0.  1.
        -24    1    1    2    0    0  0.30130553017E+01 -0.59596404308E+02 -0.74812927606E+02  0.12500000000E+03  0.80419002446E+02 0. -1.
</event>
<event>
 4    1  0.1586888E-001  0.1250000E+03  0.7546771E-02  0.1126479E+00
        -11   -1    0    0    0    0  0.00000000000E+00  0.00000000000E+00  0.12500000000E+03  0.12500000000E+03  0.00000000000E+00 0.  1.
         11   -1    0    0    0    0 -0.00000000000E+00 -0.00000000000E+00 -0.12500000000E+03  0.12500000000E+03  0.00000000000E+00 0. -1.
         24    1    1    2    0    0 -0.70537063583E+02  0.35146062150E+02  0.54286840228E+02  0.12500000000E+03  0.80419002446E+02 0.  1.
        -24    1    1    2    0    0  0.70537063583E+02 -0.35146062150E+02 -0.54286840228E+02  0.12500000000E+03  0.80419002446E+02 0. -1.
</event>
<event>
 4    1  0.1586888E-001  0.1250000E+03  0.7546771E-02  0.1126479E+00
        -11   -1    0    0    0    0  0.00000000000E+00  0.00000000000E+00  0.12500000000E+03  0.12500000000E+03  0.00000000000E+00 0.  1.
         11   -1    0    0    0    0 -0.00000000000E+00 -0.00000000000E+00 -0.12500000000E+03  0.12500000000E+03  0.00000000000E+00 0. -1.
         24    1    1    2    0    0  0.49068959421E+02 -0.35844002320E+02  0.73927185559E+02  0.12500000000E+03  0.80419002446E+02 0. -1.
        -24    1    1    2    0    0 -0.49068959421E+02  0.35844002320E+02 -0.73927185559E+02  0.12500000000E+03  0.80419002446E+02 0.  0.
</event>
<event>
 4    1  0.1586888E-001  0.1250000E+03  0.7546771E-02  0.1126479E+00
        -11   -1    0    0    0    0  0.00000000000E+00  0.00000000000E+00  0.12500000000E+03  0.12500000000E+03  0.00000000000E+00 0.  1.
         11   -1    0    0    0    0 -0.00000000000E+00 -0.00000000000E+00 -0.12500000000E+03  0.12500000000E+03  0.00000000000E+00 0. -1.
         24    1    1    2    0    0 -0.11721604742E+02 -0.37719116024E+01  0.94900794047E+02  0.12500000000E+03  0.80419002446E+02 0.  1.
        -24    1    1    2    0    0  0.11721604742E+02  0.37719116024E+01 -0.94900794047E+02  0.12500000000E+03  0.80419002446E+02 0. -1.
</event>
<event>
 4    1  0.1586888E-001  0.1250000E+03  0.7546771E-02  0.1126479E+00
        -11   -1    0    0    0    0  0.00000000000E+00  0.00000000000E+00  0.12500000000E+03  0.12500000000E+03  0.00000000000E+00 0.  1.
         11   -1    0    0    0    0 -0.00000000000E+00 -0.00000000000E+00 -0.12500000000E+03  0.12500000000E+03  0.00000000000E+00 0. -1.
         24    1    1    2    0    0 -0.46753517818E+01  0.83561559742E+02  0.46404642708E+02  0.12500000000E+03  0.80419002446E+02 0.  1.
        -24    1    1    2    0    0  0.46753517818E+01 -0.83561559742E+02 -0.46404642708E+02  0.12500000000E+03  0.80419002446E+02 0. -1.
</event>
<event>
 4    1  0.1586888E-001  0.1250000E+03  0.7546771E-02  0.1126479E+00
        -11   -1    0    0    0    0  0.00000000000E+00  0.00000000000E+00  0.12500000000E+03  0.12500000000E+03  0.00000000000E+00 0.  1.
         11   -1    0    0    0    0 -0.00000000000E+00 -0.00000000000E+00 -0.12500000000E+03  0.12500000000E+03  0.00000000000E+00 0. -1.
         24    1    1    2    0    0 -0.57354896626E+02 -0.57822727560E+02 -0.50246711894E+02  0.12500000000E+03  0.80419002446E+02 0. -1.
        -24    1    1    2    0    0  0.57354896626E+02  0.57822727560E+02  0.50246711894E+02  0.12500000000E+03  0.80419002446E+02 0.  1.
</event>
<event>
 4    1  0.1586888E-001  0.1250000E+03  0.7546771E-02  0.1126479E+00
        -11   -1    0    0    0    0  0.00000000000E+00  0.00000000000E+00  0.12500000000E+03  0.12500000000E+03  0.00000000000E+00 0.  1.
         11   -1    0    0    0    0 -0.00000000000E+00 -0.00000000000E+00 -0.12500000000E+03  0.12500000000E+03  0.00000000000E+00 0. -1.
         24    1    1    2    0    0  0.38283195239E+01  0.31303489229E+02  0.90350537228E+02  0.12500000000E+03  0.80419002446E+02 0.  1.
        -24    1    1    2    0    0 -0.38283195239E+01 -0.31303489229E+02 -0.90350537228E+02  0.12500000000E+03  0.80419002446E+02 0. -1.
</event>
<event>
 4    1  0.1586888E-001  0.1250000E+03  0.7546771E-02  0.1126479E+00
        -11   -1    0    0    0    0  0.00000000000E+00  0.00000000000E+00  0.12500000000E+03  0.12500000000E+03  0.00000000000E+00 0.  1.
         11   -1    0    0    0    0 -0.00000000000E+00 -0.00000000000E+00 -0.12500000000E+03  0.12500000000E+03  0.00000000000E+00 0. -1.
         24    1    1    2    0    0 -0.30917077424E+02 -0.22431190155E+01  0.90536659902E+02  0.12500000000E+03  0.80419002446E+02 0.  1.
        -24    1    1    2    0    0  0.30917077424E+02  0.22431190155E+01 -0.90536659902E+02  0.12500000000E+03  0.80419002446E+02 0. -1.
</event>
<event>
 4    1  0.1586888E-001  0.1250000E+03  0.7546771E-02  0.1126479E+00
        -11   -1    0    0    0    0  0.00000000000E+00  0.00000000000E+00  0.12500000000E+03  0.12500000000E+03  0.00000000000E+00 0.  1.
         11   -1    0    0    0    0 -0.00000000000E+00 -0.00000000000E+00 -0.12500000000E+03  0.12500000000E+03  0.00000000000E+00 0. -1.
         24    1    1    2    0    0 -0.21140191571E+02  0.41046626760E+02  0.83821541250E+02  0.12500000000E+03  0.80419002446E+02 0.  1.
        -24    1    1    2    0    0  0.21140191571E+02 -0.41046626760E+02 -0.83821541250E+02  0.12500000000E+03  0.80419002446E+02 0. -1.
</event>
<event>
 4    1  0.1586888E-001  0.1250000E+03  0.7546771E-02  0.1126479E+00
        -11   -1    0    0    0    0  0.00000000000E+00  0.00000000000E+00  0.12500000000E+03  0.12500000000E+03  0.00000000000E+00 0.  1.
         11   -1    0    0    0    0 -0.00000000000E+00 -0.00000000000E+00 -0.12500000000E+03  0.12500000000E+03  0.00000000000E+00 0. -1.
         24    1    1    2    0    0  0.63776820499E+02 -0.30659680269E+01  0.71280439482E+02  0.12500000000E+03  0.80419002446E+02 0.  1.
        -24    1    1    2    0    0 -0.63776820499E+02  0.30659680269E+01 -0.71280439482E+02  0.12500000000E+03  0.80419002446E+02 0. -1.
</event>
<event>
 4    1  0.1586888E-001  0.1250000E+03  0.7546771E-02  0.1126479E+00
        -11   -1    0    0    0    0  0.00000000000E+00  0.00000000000E+00  0.12500000000E+03  0.12500000000E+03  0.00000000000E+00 0.  1.
         11   -1    0    0    0    0 -0.00000000000E+00 -0.00000000000E+00 -0.12500000000E+03  0.12500000000E+03  0.00000000000E+00 0. -1.
         24    1    1    2    0    0  0.46278364393E+02 -0.16418406496E+02  0.82137281200E+02  0.12500000000E+03  0.80419002446E+02 0.  1.
        -24    1    1    2    0    0 -0.46278364393E+02  0.16418406496E+02 -0.82137281200E+02  0.12500000000E+03  0.80419002446E+02 0. -1.
</event>
<event>
 4    1  0.1586888E-001  0.1250000E+03  0.7546771E-02  0.1126479E+00
        -11   -1    0    0    0    0  0.00000000000E+00  0.00000000000E+00  0.12500000000E+03  0.12500000000E+03  0.00000000000E+00 0.  1.
         11   -1    0    0    0    0 -0.00000000000E+00 -0.00000000000E+00 -0.12500000000E+03  0.12500000000E+03  0.00000000000E+00 0. -1.
         24    1    1    2    0    0 -0.31840258165E+01  0.83827194709E+01  0.95275264573E+02  0.12500000000E+03  0.80419002446E+02 0.  0.
        -24    1    1    2    0    0  0.31840258165E+01 -0.83827194709E+01 -0.95275264573E+02  0.12500000000E+03  0.80419002446E+02 0. -1.
</event>
<event>
 4    1  0.1586888E-001  0.1250000E+03  0.7546771E-02  0.1126479E+00
        -11   -1    0    0    0    0  0.00000000000E+00  0.00000000000E+00  0.12500000000E+03  0.12500000000E+03  0.00000000000E+00 0.  1.
         11   -1    0    0    0    0 -0.00000000000E+00 -0.00000000000E+00 -0.12500000000E+03  0.12500000000E+03  0.00000000000E+00 0. -1.
         24    1    1    2    0    0  0.21323049601E+01  0.16968221132E+02  0.94155811254E+02  0.12500000000E+03  0.80419002446E+02 0.  1.
        -24    1    1    2    0    0 -0.21323049601E+01 -0.16968221132E+02 -0.94155811254E+02  0.12500000000E+03  0.80419002446E+02 0. -1.
</event>
<event>
 4    1  0.1586888E-001  0.1250000E+03  0.7546771E-02  0.1126479E+00
        -11   -1    0    0    0    0  0.00000000000E+00  0.00000000000E+00  0.12500000000E+03  0.12500000000E+03  0.00000000000E+00 0.  1.
         11   -1    0    0    0    0 -0.00000000000E+00 -0.00000000000E+00 -0.12500000000E+03  0.12500000000E+03  0.00000000000E+00 0. -1.
         24    1    1    2    0    0  0.36567751221E+02 -0.71476044222E+02  0.52074549625E+02  0.12500000000E+03  0.80419002446E+02 0.  1.
        -24    1    1    2    0    0 -0.36567751221E+02  0.71476044222E+02 -0.52074549625E+02  0.12500000000E+03  0.80419002446E+02 0. -1.
</event>
<event>
 4    1  0.1586888E-001  0.1250000E+03  0.7546771E-02  0.1126479E+00
        -11   -1    0    0    0    0  0.00000000000E+00  0.00000000000E+00  0.12500000000E+03  0.12500000000E+03  0.00000000000E+00 0.  1.
         11   -1    0    0    0    0 -0.00000000000E+00 -0.00000000000E+00 -0.12500000000E+03  0.12500000000E+03  0.00000000000E+00 0. -1.
         24    1    1    2    0    0 -0.57323321946E+02  0.28015577540E+01  0.76576576581E+02  0.12500000000E+03  0.80419002446E+02 0.  1.
        -24    1    1    2    0    0  0.57323321946E+02 -0.28015577540E+01 -0.76576576581E+02  0.12500000000E+03  0.80419002446E+02 0. -1.
</event>
<event>
 4    1  0.1586888E-001  0.1250000E+03  0.7546771E-02  0.1126479E+00
        -11   -1    0    0    0    0  0.00000000000E+00  0.00000000000E+00  0.12500000000E+03  0.12500000000E+03  0.00000000000E+00 0.  1.
         11   -1    0    0    0    0 -0.00000000000E+00 -0.00000000000E+00 -0.12500000000E+03  0.12500000000E+03  0.00000000000E+00 0. -1.
         24    1    1    2    0    0  0.21294360706E+02  0.50753471117E+02  0.78284222020E+02  0.12500000000E+03  0.80419002446E+02 0.  1.
        -24    1    1    2    0    0 -0.21294360706E+02 -0.50753471117E+02 -0.78284222020E+02  0.12500000000E+03  0.80419002446E+02 0. -1.
</event>
<event>
 4    1  0.1586888E-001  0.1250000E+03  0.7546771E-02  0.1126479E+00
        -11   -1    0    0    0    0  0.00000000000E+00  0.00000000000E+00  0.12500000000E+03  0.12500000000E+03  0.00000000000E+00 0.  1.
         11   -1    0    0    0    0 -0.00000000000E+00 -0.00000000000E+00 -0.12500000000E+03  0.12500000000E+03  0.00000000000E+00 0. -1.
         24    1    1    2    0    0 -0.13645464518E+02  0.91655476793E+02  0.23892654049E+02  0.12500000000E+03  0.80419002446E+02 0.  1.
        -24    1    1    2    0    0  0.13645464518E+02 -0.91655476793E+02 -0.23892654049E+02  0.12500000000E+03  0.80419002446E+02 0. -1.
</event>
<event>
 4    1  0.1586888E-001  0.1250000E+03  0.7546771E-02  0.1126479E+00
        -11   -1    0    0    0    0  0.00000000000E+00  0.00000000000E+00  0.12500000000E+03  0.12500000000E+03  0.00000000000E+00 0.  1.
         11   -1    0    0    0    0 -0.00000000000E+00 -0.00000000000E+00 -0.12500000000E+03  0.12500000000E+03  0.00000000000E+00 0. -1.
         24    1    1    2    0    0 -0.83151358941E+00  0.22596540194E+02  0.92986499031E+02  0.12500000000E+03  0.80419002446E+02 0.  1.
        -24    1    1    2    0    0  0.83151358941E+00 -0.22596540194E+02 -0.92986499031E+02  0.12500000000E+03  0.80419002446E+02 0. -1.
</event>
<event>
 4    1  0.1586888E-001  0.1250000E+03  0.7546771E-02  0.1126479E+00
        -11   -1    0    0    0    0  0.00000000000E+00  0.00000000000E+00  0.12500000000E+03  0.12500000000E+03  0.00000000000E+00 0.  1.
         11   -1    0    0    0    0 -0.00000000000E+00 -0.00000000000E+00 -0.12500000000E+03  0.12500000000E+03  0.00000000000E+00 0. -1.
         24    1    1    2    0    0  0.28207258759E+02 -0.47603838613E+02  0.78076943769E+02  0.12500000000E+03  0.80419002446E+02 0.  1.
        -24    1    1    2    0    0 -0.28207258759E+02  0.47603838613E+02 -0.78076943769E+02  0.12500000000E+03  0.80419002446E+02 0. -1.
</event>
<event>
 4    1  0.1586888E-001  0.1250000E+03  0.7546771E-02  0.1126479E+00
        -11   -1    0    0    0    0  0.00000000000E+00  0.00000000000E+00  0.12500000000E+03  0.12500000000E+03  0.00000000000E+00 0.  1.
         11   -1    0    0    0    0 -0.00000000000E+00 -0.00000000000E+00 -0.12500000000E+03  0.12500000000E+03  0.00000000000E+00 0. -1.
         24    1    1    2    0    0  0.61662361660E+02 -0.11419413665E+02  0.72285089691E+02  0.12500000000E+03  0.80419002446E+02 0.  1.
        -24    1    1    2    0    0 -0.61662361660E+02  0.11419413665E+02 -0.72285089691E+02  0.12500000000E+03  0.80419002446E+02 0. -1.
</event>
<event>
 4    1  0.1586888E-001  0.1250000E+03  0.7546771E-02  0.1126479E+00
        -11   -1    0    0    0    0  0.00000000000E+00  0.00000000000E+00  0.12500000000E+03  0.12500000000E+03  0.00000000000E+00 0.  1.
         11   -1    0    0    0    0 -0.00000000000E+00 -0.00000000000E+00 -0.12500000000E+03  0.12500000000E+03  0.00000000000E+00 0. -1.
         24    1    1    2    0    0 -0.52166207036E+02  0.29364839028E+02  0.74660411986E+02  0.12500000000E+03  0.80419002446E+02 0.  1.
        -24    1    1    2    0    0  0.52166207036E+02 -0.29364839028E+02 -0.74660411986E+02  0.12500000000E+03  0.80419002446E+02 0. -1.
</event>
<event>
 4    1  0.1586888E-001  0.1250000E+03  0.7546771E-02  0.1126479E+00
        -11   -1    0    0    0    0  0.00000000000E+00  0.00000000000E+00  0.12500000000E+03  0.12500000000E+03  0.00000000000E+00 0.  1.
         11   -1    0    0    0    0 -0.00000000000E+00 -0.00000000000E+00 -0.12500000000E+03  0.12500000000E+03  0.00000000000E+00 0. -1.
         24    1    1    2    0    0 -0.16851464836E+02  0.27522369396E+02  0.90090684099E+02  0.12500000000E+03  0.80419002446E+02 0.  1.
        -24    1    1    2    0    0  0.16851464836E+02 -0.27522369396E+02 -0.90090684099E+02  0.12500000000E+03  0.80419002446E+02 0. -1.
</event>
<event>
 4    1  0.1586888E-001  0.1250000E+03  0.7546771E-02  0.1126479E+00
        -11   -1    0    0    0    0  0.00000000000E+00  0.00000000000E+00  0.12500000000E+03  0.12500000000E+03  0.00000000000E+00 0.  1.
         11   -1    0    0    0    0 -0.00000000000E+00 -0.00000000000E+00 -0.12500000000E+03  0.12500000000E+03  0.00000000000E+00 0. -1.
         24    1    1    2    0    0  0.36826622808E+02 -0.21805262014E+02  0.85592724263E+02  0.12500000000E+03  0.80419002446E+02 0.  1.
        -24    1    1    2    0    0 -0.36826622808E+02  0.21805262014E+02 -0.85592724263E+02  0.12500000000E+03  0.80419002446E+02 0. -1.
</event>
<event>
 4    1  0.1586888E-001  0.1250000E+03  0.7546771E-02  0.1126479E+00
        -11   -1    0    0    0    0  0.00000000000E+00  0.00000000000E+00  0.12500000000E+03  0.12500000000E+03  0.00000000000E+00 0.  1.
         11   -1    0    0    0    0 -0.00000000000E+00 -0.00000000000E+00 -0.12500000000E+03  0.12500000000E+03  0.00000000000E+00 0. -1.
         24    1    1    2    0    0  0.30395815964E+01 -0.51301584361E+00  0.95646650773E+02  0.12500000000E+03  0.80419002446E+02 0.  1.
        -24    1    1    2    0    0 -0.30395815964E+01  0.51301584361E+00 -0.95646650773E+02  0.12500000000E+03  0.80419002446E+02 0. -1.
</event>
<event>
 4    1  0.1586888E-001  0.1250000E+03  0.7546771E-02  0.1126479E+00
        -11   -1    0    0    0    0  0.00000000000E+00  0.00000000000E+00  0.12500000000E+03  0.12500000000E+03  0.00000000000E+00 0.  1.
         11   -1    0    0    0    0 -0.00000000000E+00 -0.00000000000E+00 -0.12500000000E+03  0.12500000000E+03  0.00000000000E+00 0. -1.
         24    1    1    2    0    0 -0.33885935653E+02  0.54900614262E+02  0.70678497184E+02  0.12500000000E+03  0.80419002446E+02 0.  1.
        -24    1    1    2    0    0  0.33885935653E+02 -0.54900614262E+02 -0.70678497184E+02  0.12500000000E+03  0.80419002446E+02 0. -1.
</event>
<event>
 4    1  0.1586888E-001  0.1250000E+03  0.7546771E-02  0.1126479E+00
        -11   -1    0    0    0    0  0.00000000000E+00  0.00000000000E+00  0.12500000000E+03  0.12500000000E+03  0.00000000000E+00 0.  1.
         11   -1    0    0    0    0 -0.00000000000E+00 -0.00000000000E+00 -0.12500000000E+03  0.12500000000E+03  0.00000000000E+00 0. -1.
         24    1    1    2    0    0  0.87065984725E+01 -0.35001189906E+02  0.88639132971E+02  0.12500000000E+03  0.80419002446E+02 0.  1.
        -24    1    1    2    0    0 -0.87065984725E+01  0.35001189906E+02 -0.88639132971E+02  0.12500000000E+03  0.80419002446E+02 0. -1.
</event>
<event>
 4    1  0.1586888E-001  0.1250000E+03  0.7546771E-02  0.1126479E+00
        -11   -1    0    0    0    0  0.00000000000E+00  0.00000000000E+00  0.12500000000E+03  0.12500000000E+03  0.00000000000E+00 0.  1.
         11   -1    0    0    0    0 -0.00000000000E+00 -0.00000000000E+00 -0.12500000000E+03  0.12500000000E+03  0.00000000000E+00 0. -1.
         24    1    1    2    0    0 -0.36287050638E+02 -0.25542185127E+02  0.84785793507E+02  0.12500000000E+03  0.80419002446E+02 0.  1.
        -24    1    1    2    0    0  0.36287050638E+02  0.25542185127E+02 -0.84785793507E+02  0.12500000000E+03  0.80419002446E+02 0. -1.
</event>
<event>
 4    1  0.1586888E-001  0.1250000E+03  0.7546771E-02  0.1126479E+00
        -11   -1    0    0    0    0  0.00000000000E+00  0.00000000000E+00  0.12500000000E+03  0.12500000000E+03  0.00000000000E+00 0.  1.
         11   -1    0    0    0    0 -0.00000000000E+00 -0.00000000000E+00 -0.12500000000E+03  0.12500000000E+03  0.00000000000E+00 0. -1.
         24    1    1    2    0    0 -0.44939416945E+02  0.11345858824E+02  0.83722782669E+02  0.12500000000E+03  0.80419002446E+02 0.  1.
        -24    1    1    2    0    0  0.44939416945E+02 -0.11345858824E+02 -0.83722782669E+02  0.12500000000E+03  0.80419002446E+02 0. -1.
</event>
<event>
 4    1  0.1586888E-001  0.1250000E+03  0.7546771E-02  0.1126479E+00
        -11   -1    0    0    0    0  0.00000000000E+00  0.00000000000E+00  0.12500000000E+03  0.12500000000E+03  0.00000000000E+00 0.  1.
         11   -1    0    0    0    0 -0.00000000000E+00 -0.00000000000E+00 -0.12500000000E+03  0.12500000000E+03  0.00000000000E+00 0. -1.
         24    1    1    2    0    0 -0.35998384803E+01 -0.44238976846E+02  0.84780529228E+02  0.12500000000E+03  0.80419002446E+02 0.  1.
        -24    1    1    2    0    0  0.35998384803E+01  0.44238976846E+02 -0.84780529228E+02  0.12500000000E+03  0.80419002446E+02 0. -1.
</event>
<event>
 4    1  0.1586888E-001  0.1250000E+03  0.7546771E-02  0.1126479E+00
        -11   -1    0    0    0    0  0.00000000000E+00  0.00000000000E+00  0.12500000000E+03  0.12500000000E+03  0.00000000000E+00 0.  1.
         11   -1    0    0    0    0 -0.00000000000E+00 -0.00000000000E+00 -0.12500000000E+03  0.12500000000E+03  0.00000000000E+00 0. -1.
         24    1    1    2    0    0  0.17301775525E+02 -0.29931937673E+01  0.94071639724E+02  0.12500000000E+03  0.80419002446E+02 0.  0.
        -24    1    1    2    0    0 -0.17301775525E+02  0.29931937673E+01 -0.94071639724E+02  0.12500000000E+03  0.80419002446E+02 0. -1.
</event>
<event>
 4    1  0.1586888E-001  0.1250000E+03  0.7546771E-02  0.1126479E+00
        -11   -1    0    0    0    0  0.00000000000E+00  0.00000000000E+00  0.12500000000E+03  0.12500000000E+03  0.00000000000E+00 0.  1.
         11   -1    0    0    0    0 -0.00000000000E+00 -0.00000000000E+00 -0.12500000000E+03  0.12500000000E+03  0.00000000000E+00 0. -1.
         24    1    1    2    0    0 -0.34831440273E+02 -0.77587476405E+02  0.43871839706E+02  0.12500000000E+03  0.80419002446E+02 0. -1.
        -24    1    1    2    0    0  0.34831440273E+02  0.77587476405E+02 -0.43871839706E+02  0.12500000000E+03  0.80419002446E+02 0.  1.
</event>
<event>
 4    1  0.1586888E-001  0.1250000E+03  0.7546771E-02  0.1126479E+00
        -11   -1    0    0    0    0  0.00000000000E+00  0.00000000000E+00  0.12500000000E+03  0.12500000000E+03  0.00000000000E+00 0.  1.
         11   -1    0    0    0    0 -0.00000000000E+00 -0.00000000000E+00 -0.12500000000E+03  0.12500000000E+03  0.00000000000E+00 0. -1.
         24    1    1    2    0    0  0.22707498116E+02 -0.21874718864E+02  0.90352920537E+02  0.12500000000E+03  0.80419002446E+02 0.  1.
        -24    1    1    2    0    0 -0.22707498116E+02  0.21874718864E+02 -0.90352920537E+02  0.12500000000E+03  0.80419002446E+02 0. -1.
</event>
<event>
 4    1  0.1586888E-001  0.1250000E+03  0.7546771E-02  0.1126479E+00
        -11   -1    0    0    0    0  0.00000000000E+00  0.00000000000E+00  0.12500000000E+03  0.12500000000E+03  0.00000000000E+00 0.  1.
         11   -1    0    0    0    0 -0.00000000000E+00 -0.00000000000E+00 -0.12500000000E+03  0.12500000000E+03  0.00000000000E+00 0. -1.
         24    1    1    2    0    0  0.17299176429E+02  0.47403640080E+02  0.81310623216E+02  0.12500000000E+03  0.80419002446E+02 0.  1.
        -24    1    1    2    0    0 -0.17299176429E+02 -0.47403640080E+02 -0.81310623216E+02  0.12500000000E+03  0.80419002446E+02 0. -1.
</event>
<event>
 4    1  0.1586888E-001  0.1250000E+03  0.7546771E-02  0.1126479E+00
        -11   -1    0    0    0    0  0.00000000000E+00  0.00000000000E+00  0.12500000000E+03  0.12500000000E+03  0.00000000000E+00 0.  1.
         11   -1    0    0    0    0 -0.00000000000E+00 -0.00000000000E+00 -0.12500000000E+03  0.12500000000E+03  0.00000000000E+00 0. -1.
         24    1    1    2    0    0  0.31655372333E+02 -0.19430763504E+02  0.88193916331E+02  0.12500000000E+03  0.80419002446E+02 0.  1.
        -24    1    1    2    0    0 -0.31655372333E+02  0.19430763504E+02 -0.88193916331E+02  0.12500000000E+03  0.80419002446E+02 0. -1.
</event>
<event>
 4    1  0.1586888E-001  0.1250000E+03  0.7546771E-02  0.1126479E+00
        -11   -1    0    0    0    0  0.00000000000E+00  0.00000000000E+00  0.12500000000E+03  0.12500000000E+03  0.00000000000E+00 0.  1.
         11   -1    0    0    0    0 -0.00000000000E+00 -0.00000000000E+00 -0.12500000000E+03  0.12500000000E+03  0.00000000000E+00 0. -1.
         24    1    1    2    0    0  0.70616843457E+02 -0.83020931169E+01  0.64047800241E+02  0.12500000000E+03  0.80419002446E+02 0.  1.
        -24    1    1    2    0    0 -0.70616843457E+02  0.83020931169E+01 -0.64047800241E+02  0.12500000000E+03  0.80419002446E+02 0. -1.
</event>
<event>
 4    1  0.1586888E-001  0.1250000E+03  0.7546771E-02  0.1126479E+00
        -11   -1    0    0    0    0  0.00000000000E+00  0.00000000000E+00  0.12500000000E+03  0.12500000000E+03  0.00000000000E+00 0.  1.
         11   -1    0    0    0    0 -0.00000000000E+00 -0.00000000000E+00 -0.12500000000E+03  0.12500000000E+03  0.00000000000E+00 0. -1.
         24    1    1    2    0    0 -0.81300583098E+02 -0.27022968541E+02  0.42635178020E+02  0.12500000000E+03  0.80419002446E+02 0.  1.
        -24    1    1    2    0    0  0.81300583098E+02  0.27022968541E+02 -0.42635178020E+02  0.12500000000E+03  0.80419002446E+02 0. -1.
</event>
<event>
 4    1  0.1586888E-001  0.1250000E+03  0.7546771E-02  0.1126479E+00
        -11   -1    0    0    0    0  0.00000000000E+00  0.00000000000E+00  0.12500000000E+03  0.12500000000E+03  0.00000000000E+00 0.  1.
         11   -1    0    0    0    0 -0.00000000000E+00 -0.00000000000E+00 -0.12500000000E+03  0.12500000000E+03  0.00000000000E+00 0. -1.
         24    1    1    2    0    0  0.72816574467E+01  0.10328923145E+02  0.94858182869E+02  0.12500000000E+03  0.80419002446E+02 0.  0.
        -24    1    1    2    0    0 -0.72816574467E+01 -0.10328923145E+02 -0.94858182869E+02  0.12500000000E+03  0.80419002446E+02 0. -1.
</event>
<event>
 4    1  0.1586888E-001  0.1250000E+03  0.7546771E-02  0.1126479E+00
        -11   -1    0    0    0    0  0.00000000000E+00  0.00000000000E+00  0.12500000000E+03  0.12500000000E+03  0.00000000000E+00 0.  1.
         11   -1    0    0    0    0 -0.00000000000E+00 -0.00000000000E+00 -0.12500000000E+03  0.12500000000E+03  0.00000000000E+00 0. -1.
         24    1    1    2    0    0  0.80093807765E+02 -0.33289065337E+02  0.40430237846E+02  0.12500000000E+03  0.80419002446E+02 0.  1.
        -24    1    1    2    0    0 -0.80093807765E+02  0.33289065337E+02 -0.40430237846E+02  0.12500000000E+03  0.80419002446E+02 0. -1.
</event>
<event>
 4    1  0.1586888E-001  0.1250000E+03  0.7546771E-02  0.1126479E+00
        -11   -1    0    0    0    0  0.00000000000E+00  0.00000000000E+00  0.12500000000E+03  0.12500000000E+03  0.00000000000E+00 0.  1.
         11   -1    0    0    0    0 -0.00000000000E+00 -0.00000000000E+00 -0.12500000000E+03  0.12500000000E+03  0.00000000000E+00 0. -1.
         24    1    1    2    0    0 -0.95933916131E+01 -0.12273618376E+02  0.94419855830E+02  0.12500000000E+03  0.80419002446E+02 0.  1.
        -24    1    1    2    0    0  0.95933916131E+01  0.12273618376E+02 -0.94419855830E+02  0.12500000000E+03  0.80419002446E+02 0.  0.
</event>
<event>
 4    1  0.1586888E-001  0.1250000E+03  0.7546771E-02  0.1126479E+00
        -11   -1    0    0    0    0  0.00000000000E+00  0.00000000000E+00  0.12500000000E+03  0.12500000000E+03  0.00000000000E+00 0.  1.
         11   -1    0    0    0    0 -0.00000000000E+00 -0.00000000000E+00 -0.12500000000E+03  0.12500000000E+03  0.00000000000E+00 0. -1.
         24    1    1    2    0    0 -0.66350696066E+02 -0.20783902269E+01  0.68927857004E+02  0.12500000000E+03  0.80419002446E+02 0.  1.
        -24    1    1    2    0    0  0.66350696066E+02  0.20783902269E+01 -0.68927857004E+02  0.12500000000E+03  0.80419002446E+02 0. -1.
</event>
<event>
 4    1  0.1586888E-001  0.1250000E+03  0.7546771E-02  0.1126479E+00
        -11   -1    0    0    0    0  0.00000000000E+00  0.00000000000E+00  0.12500000000E+03  0.12500000000E+03  0.00000000000E+00 0. -1.
         11   -1    0    0    0    0 -0.00000000000E+00 -0.00000000000E+00 -0.12500000000E+03  0.12500000000E+03  0.00000000000E+00 0.  1.
         24    1    1    2    0    0 -0.69382066649E+02 -0.33381413115E+02  0.56829518136E+02  0.12500000000E+03  0.80419002446E+02 0.  0.
        -24    1    1    2    0    0  0.69382066649E+02  0.33381413115E+02 -0.56829518136E+02  0.12500000000E+03  0.80419002446E+02 0.  0.
</event>
<event>
 4    1  0.1586888E-001  0.1250000E+03  0.7546771E-02  0.1126479E+00
        -11   -1    0    0    0    0  0.00000000000E+00  0.00000000000E+00  0.12500000000E+03  0.12500000000E+03  0.00000000000E+00 0.  1.
         11   -1    0    0    0    0 -0.00000000000E+00 -0.00000000000E+00 -0.12500000000E+03  0.12500000000E+03  0.00000000000E+00 0. -1.
         24    1    1    2    0    0  0.19646003338E+02 -0.88150883251E+01  0.93242226573E+02  0.12500000000E+03  0.80419002446E+02 0.  1.
        -24    1    1    2    0    0 -0.19646003338E+02  0.88150883251E+01 -0.93242226573E+02  0.12500000000E+03  0.80419002446E+02 0.  0.
</event>
<event>
 4    1  0.1586888E-001  0.1250000E+03  0.7546771E-02  0.1126479E+00
        -11   -1    0    0    0    0  0.00000000000E+00  0.00000000000E+00  0.12500000000E+03  0.12500000000E+03  0.00000000000E+00 0.  1.
         11   -1    0    0    0    0 -0.00000000000E+00 -0.00000000000E+00 -0.12500000000E+03  0.12500000000E+03  0.00000000000E+00 0. -1.
         24    1    1    2    0    0 -0.21451516753E+02  0.32969583147E+02  0.87238885032E+02  0.12500000000E+03  0.80419002446E+02 0.  1.
        -24    1    1    2    0    0  0.21451516753E+02 -0.32969583147E+02 -0.87238885032E+02  0.12500000000E+03  0.80419002446E+02 0. -1.
</event>
<event>
 4    1  0.1586888E-001  0.1250000E+03  0.7546771E-02  0.1126479E+00
        -11   -1    0    0    0    0  0.00000000000E+00  0.00000000000E+00  0.12500000000E+03  0.12500000000E+03  0.00000000000E+00 0.  1.
         11   -1    0    0    0    0 -0.00000000000E+00 -0.00000000000E+00 -0.12500000000E+03  0.12500000000E+03  0.00000000000E+00 0. -1.
         24    1    1    2    0    0 -0.28043558106E+02  0.28285484148E+02  0.87013069598E+02  0.12500000000E+03  0.80419002446E+02 0.  1.
        -24    1    1    2    0    0  0.28043558106E+02 -0.28285484148E+02 -0.87013069598E+02  0.12500000000E+03  0.80419002446E+02 0. -1.
</event>
<event>
 4    1  0.1586888E-001  0.1250000E+03  0.7546771E-02  0.1126479E+00
        -11   -1    0    0    0    0  0.00000000000E+00  0.00000000000E+00  0.12500000000E+03  0.12500000000E+03  0.00000000000E+00 0.  1.
         11   -1    0    0    0    0 -0.00000000000E+00 -0.00000000000E+00 -0.12500000000E+03  0.12500000000E+03  0.00000000000E+00 0. -1.
         24    1    1    2    0    0 -0.30280753301E+02 -0.89153409708E+02  0.17103495624E+02  0.12500000000E+03  0.80419002446E+02 0.  1.
        -24    1    1    2    0    0  0.30280753301E+02  0.89153409708E+02 -0.17103495624E+02  0.12500000000E+03  0.80419002446E+02 0.  0.
</event>
<event>
 4    1  0.1586888E-001  0.1250000E+03  0.7546771E-02  0.1126479E+00
        -11   -1    0    0    0    0  0.00000000000E+00  0.00000000000E+00  0.12500000000E+03  0.12500000000E+03  0.00000000000E+00 0.  1.
         11   -1    0    0    0    0 -0.00000000000E+00 -0.00000000000E+00 -0.12500000000E+03  0.12500000000E+03  0.00000000000E+00 0. -1.
         24    1    1    2    0    0 -0.43033428034E+02  0.41051141607E+02  0.74971407150E+02  0.12500000000E+03  0.80419002446E+02 0.  1.
        -24    1    1    2    0    0  0.43033428034E+02 -0.41051141607E+02 -0.74971407150E+02  0.12500000000E+03  0.80419002446E+02 0. -1.
</event>
<event>
 4    1  0.1586888E-001  0.1250000E+03  0.7546771E-02  0.1126479E+00
        -11   -1    0    0    0    0  0.00000000000E+00  0.00000000000E+00  0.12500000000E+03  0.12500000000E+03  0.00000000000E+00 0.  1.
         11   -1    0    0    0    0 -0.00000000000E+00 -0.00000000000E+00 -0.12500000000E+03  0.12500000000E+03  0.00000000000E+00 0. -1.
         24    1    1    2    0    0 -0.83750404956E+02 -0.23779783989E+02 -0.39726258177E+02  0.12500000000E+03  0.80419002446E+02 0.  0.
        -24    1    1    2    0    0  0.83750404956E+02  0.23779783989E+02  0.39726258177E+02  0.12500000000E+03  0.80419002446E+02 0. -1.
</event>
<event>
 4    1  0.1586888E-001  0.1250000E+03  0.7546771E-02  0.1126479E+00
        -11   -1    0    0    0    0  0.00000000000E+00  0.00000000000E+00  0.12500000000E+03  0.12500000000E+03  0.00000000000E+00 0.  1.
         11   -1    0    0    0    0 -0.00000000000E+00 -0.00000000000E+00 -0.12500000000E+03  0.12500000000E+03  0.00000000000E+00 0. -1.
         24    1    1    2    0    0  0.10108564152E+02  0.84166540498E+02  0.44402639978E+02  0.12500000000E+03  0.80419002446E+02 0.  1.
        -24    1    1    2    0    0 -0.10108564152E+02 -0.84166540498E+02 -0.44402639978E+02  0.12500000000E+03  0.80419002446E+02 0. -1.
</event>
<event>
 4    1  0.1586888E-001  0.1250000E+03  0.7546771E-02  0.1126479E+00
        -11   -1    0    0    0    0  0.00000000000E+00  0.00000000000E+00  0.12500000000E+03  0.12500000000E+03  0.00000000000E+00 0.  1.
         11   -1    0    0    0    0 -0.00000000000E+00 -0.00000000000E+00 -0.12500000000E+03  0.12500000000E+03  0.00000000000E+00 0. -1.
         24    1    1    2    0    0 -0.38379550220E+02 -0.18921740403E+02  0.85596506416E+02  0.12500000000E+03  0.80419002446E+02 0.  1.
        -24    1    1    2    0    0  0.38379550220E+02  0.18921740403E+02 -0.85596506416E+02  0.12500000000E+03  0.80419002446E+02 0. -1.
</event>
<event>
 4    1  0.1586888E-001  0.1250000E+03  0.7546771E-02  0.1126479E+00
        -11   -1    0    0    0    0  0.00000000000E+00  0.00000000000E+00  0.12500000000E+03  0.12500000000E+03  0.00000000000E+00 0.  1.
         11   -1    0    0    0    0 -0.00000000000E+00 -0.00000000000E+00 -0.12500000000E+03  0.12500000000E+03  0.00000000000E+00 0. -1.
         24    1    1    2    0    0 -0.65663736453E+02  0.53511911709E+02  0.44525645035E+02  0.12500000000E+03  0.80419002446E+02 0. -1.
        -24    1    1    2    0    0  0.65663736453E+02 -0.53511911709E+02 -0.44525645035E+02  0.12500000000E+03  0.80419002446E+02 0.  1.
</event>
<event>
 4    1  0.1586888E-001  0.1250000E+03  0.7546771E-02  0.1126479E+00
        -11   -1    0    0    0    0  0.00000000000E+00  0.00000000000E+00  0.12500000000E+03  0.12500000000E+03  0.00000000000E+00 0.  1.
         11   -1    0    0    0    0 -0.00000000000E+00 -0.00000000000E+00 -0.12500000000E+03  0.12500000000E+03  0.00000000000E+00 0. -1.
         24    1    1    2    0    0  0.62198484436E+02 -0.37370681035E+01  0.72630344220E+02  0.12500000000E+03  0.80419002446E+02 0.  1.
        -24    1    1    2    0    0 -0.62198484436E+02  0.37370681035E+01 -0.72630344220E+02  0.12500000000E+03  0.80419002446E+02 0. -1.
</event>
<event>
 4    1  0.1586888E-001  0.1250000E+03  0.7546771E-02  0.1126479E+00
        -11   -1    0    0    0    0  0.00000000000E+00  0.00000000000E+00  0.12500000000E+03  0.12500000000E+03  0.00000000000E+00 0.  1.
         11   -1    0    0    0    0 -0.00000000000E+00 -0.00000000000E+00 -0.12500000000E+03  0.12500000000E+03  0.00000000000E+00 0. -1.
         24    1    1    2    0    0  0.18701792332E+02 -0.53516882784E+02  0.77097148237E+02  0.12500000000E+03  0.80419002446E+02 0.  1.
        -24    1    1    2    0    0 -0.18701792332E+02  0.53516882784E+02 -0.77097148237E+02  0.12500000000E+03  0.80419002446E+02 0. -1.
</event>
<event>
 4    1  0.1586888E-001  0.1250000E+03  0.7546771E-02  0.1126479E+00
        -11   -1    0    0    0    0  0.00000000000E+00  0.00000000000E+00  0.12500000000E+03  0.12500000000E+03  0.00000000000E+00 0.  1.
         11   -1    0    0    0    0 -0.00000000000E+00 -0.00000000000E+00 -0.12500000000E+03  0.12500000000E+03  0.00000000000E+00 0. -1.
         24    1    1    2    0    0  0.47441205061E+02  0.26587439092E+02  0.78741502338E+02  0.12500000000E+03  0.80419002446E+02 0.  1.
        -24    1    1    2    0    0 -0.47441205061E+02 -0.26587439092E+02 -0.78741502338E+02  0.12500000000E+03  0.80419002446E+02 0. -1.
</event>
<event>
 4    1  0.1586888E-001  0.1250000E+03  0.7546771E-02  0.1126479E+00
        -11   -1    0    0    0    0  0.00000000000E+00  0.00000000000E+00  0.12500000000E+03  0.12500000000E+03  0.00000000000E+00 0.  1.
         11   -1    0    0    0    0 -0.00000000000E+00 -0.00000000000E+00 -0.12500000000E+03  0.12500000000E+03  0.00000000000E+00 0. -1.
         24    1    1    2    0    0 -0.13503797504E+02 -0.43870333204E+01  0.94637125047E+02  0.12500000000E+03  0.80419002446E+02 0.  1.
        -24    1    1    2    0    0  0.13503797504E+02  0.43870333204E+01 -0.94637125047E+02  0.12500000000E+03  0.80419002446E+02 0. -1.
</event>
<event>
 4    1  0.1586888E-001  0.1250000E+03  0.7546771E-02  0.1126479E+00
        -11   -1    0    0    0    0  0.00000000000E+00  0.00000000000E+00  0.12500000000E+03  0.12500000000E+03  0.00000000000E+00 0.  1.
         11   -1    0    0    0    0 -0.00000000000E+00 -0.00000000000E+00 -0.12500000000E+03  0.12500000000E+03  0.00000000000E+00 0. -1.
         24    1    1    2    0    0 -0.90060242463E+02 -0.22498245684E+01  0.32278089513E+02  0.12500000000E+03  0.80419002446E+02 0.  0.
        -24    1    1    2    0    0  0.90060242463E+02  0.22498245684E+01 -0.32278089513E+02  0.12500000000E+03  0.80419002446E+02 0.  0.
</event>
<event>
 4    1  0.1586888E-001  0.1250000E+03  0.7546771E-02  0.1126479E+00
        -11   -1    0    0    0    0  0.00000000000E+00  0.00000000000E+00  0.12500000000E+03  0.12500000000E+03  0.00000000000E+00 0.  1.
         11   -1    0    0    0    0 -0.00000000000E+00 -0.00000000000E+00 -0.12500000000E+03  0.12500000000E+03  0.00000000000E+00 0. -1.
         24    1    1    2    0    0  0.35990164507E+02 -0.62041634759E+02  0.63350829994E+02  0.12500000000E+03  0.80419002446E+02 0. -1.
        -24    1    1    2    0    0 -0.35990164507E+02  0.62041634759E+02 -0.63350829994E+02  0.12500000000E+03  0.80419002446E+02 0.  1.
</event>
<event>
 4    1  0.1586888E-001  0.1250000E+03  0.7546771E-02  0.1126479E+00
        -11   -1    0    0    0    0  0.00000000000E+00  0.00000000000E+00  0.12500000000E+03  0.12500000000E+03  0.00000000000E+00 0.  1.
         11   -1    0    0    0    0 -0.00000000000E+00 -0.00000000000E+00 -0.12500000000E+03  0.12500000000E+03  0.00000000000E+00 0. -1.
         24    1    1    2    0    0 -0.49055004951E+02 -0.58653307484E+02  0.57542854083E+02  0.12500000000E+03  0.80419002446E+02 0.  1.
        -24    1    1    2    0    0  0.49055004951E+02  0.58653307484E+02 -0.57542854083E+02  0.12500000000E+03  0.80419002446E+02 0. -1.
</event>
<event>
 4    1  0.1586888E-001  0.1250000E+03  0.7546771E-02  0.1126479E+00
        -11   -1    0    0    0    0  0.00000000000E+00  0.00000000000E+00  0.12500000000E+03  0.12500000000E+03  0.00000000000E+00 0.  1.
         11   -1    0    0    0    0 -0.00000000000E+00 -0.00000000000E+00 -0.12500000000E+03  0.12500000000E+03  0.00000000000E+00 0. -1.
         24    1    1    2    0    0  0.44063131991E+02 -0.25770793014E+01  0.84909263965E+02  0.12500000000E+03  0.80419002446E+02 0.  1.
        -24    1    1    2    0    0 -0.44063131991E+02  0.25770793014E+01 -0.84909263965E+02  0.12500000000E+03  0.80419002446E+02 0. -1.
</event>
<event>
 4    1  0.1586888E-001  0.1250000E+03  0.7546771E-02  0.1126479E+00
        -11   -1    0    0    0    0  0.00000000000E+00  0.00000000000E+00  0.12500000000E+03  0.12500000000E+03  0.00000000000E+00 0.  1.
         11   -1    0    0    0    0 -0.00000000000E+00 -0.00000000000E+00 -0.12500000000E+03  0.12500000000E+03  0.00000000000E+00 0. -1.
         24    1    1    2    0    0 -0.33824060831E+01 -0.14316022756E+02  0.94558949165E+02  0.12500000000E+03  0.80419002446E+02 0.  0.
        -24    1    1    2    0    0  0.33824060831E+01  0.14316022756E+02 -0.94558949165E+02  0.12500000000E+03  0.80419002446E+02 0. -1.
</event>
<event>
 4    1  0.1586888E-001  0.1250000E+03  0.7546771E-02  0.1126479E+00
        -11   -1    0    0    0    0  0.00000000000E+00  0.00000000000E+00  0.12500000000E+03  0.12500000000E+03  0.00000000000E+00 0.  1.
         11   -1    0    0    0    0 -0.00000000000E+00 -0.00000000000E+00 -0.12500000000E+03  0.12500000000E+03  0.00000000000E+00 0. -1.
         24    1    1    2    0    0 -0.20392862155E+02 -0.26829982402E+02  0.89565993899E+02  0.12500000000E+03  0.80419002446E+02 0.  1.
        -24    1    1    2    0    0  0.20392862155E+02  0.26829982402E+02 -0.89565993899E+02  0.12500000000E+03  0.80419002446E+02 0. -1.
</event>
<event>
 4    1  0.1586888E-001  0.1250000E+03  0.7546771E-02  0.1126479E+00
        -11   -1    0    0    0    0  0.00000000000E+00  0.00000000000E+00  0.12500000000E+03  0.12500000000E+03  0.00000000000E+00 0.  1.
         11   -1    0    0    0    0 -0.00000000000E+00 -0.00000000000E+00 -0.12500000000E+03  0.12500000000E+03  0.00000000000E+00 0. -1.
         24    1    1    2    0    0 -0.12634186262E+02 -0.30652159787E+02  0.89769741470E+02  0.12500000000E+03  0.80419002446E+02 0.  1.
        -24    1    1    2    0    0  0.12634186262E+02  0.30652159787E+02 -0.89769741470E+02  0.12500000000E+03  0.80419002446E+02 0. -1.
</event>
<event>
 4    1  0.1586888E-001  0.1250000E+03  0.7546771E-02  0.1126479E+00
        -11   -1    0    0    0    0  0.00000000000E+00  0.00000000000E+00  0.12500000000E+03  0.12500000000E+03  0.00000000000E+00 0.  1.
         11   -1    0    0    0    0 -0.00000000000E+00 -0.00000000000E+00 -0.12500000000E+03  0.12500000000E+03  0.00000000000E+00 0. -1.
         24    1    1    2    0    0  0.76503186126E+01  0.26148893093E+02  0.91735991087E+02  0.12500000000E+03  0.80419002446E+02 0.  1.
        -24    1    1    2    0    0 -0.76503186126E+01 -0.26148893093E+02 -0.91735991087E+02  0.12500000000E+03  0.80419002446E+02 0. -1.
</event>
<event>
 4    1  0.1586888E-001  0.1250000E+03  0.7546771E-02  0.1126479E+00
        -11   -1    0    0    0    0  0.00000000000E+00  0.00000000000E+00  0.12500000000E+03  0.12500000000E+03  0.00000000000E+00 0.  1.
         11   -1    0    0    0    0 -0.00000000000E+00 -0.00000000000E+00 -0.12500000000E+03  0.12500000000E+03  0.00000000000E+00 0. -1.
         24    1    1    2    0    0 -0.42399500241E+01  0.23513804083E+02  0.92665570127E+02  0.12500000000E+03  0.80419002446E+02 0.  1.
        -24    1    1    2    0    0  0.42399500241E+01 -0.23513804083E+02 -0.92665570127E+02  0.12500000000E+03  0.80419002446E+02 0. -1.
</event>
<event>
 4    1  0.1586888E-001  0.1250000E+03  0.7546771E-02  0.1126479E+00
        -11   -1    0    0    0    0  0.00000000000E+00  0.00000000000E+00  0.12500000000E+03  0.12500000000E+03  0.00000000000E+00 0.  1.
         11   -1    0    0    0    0 -0.00000000000E+00 -0.00000000000E+00 -0.12500000000E+03  0.12500000000E+03  0.00000000000E+00 0. -1.
         24    1    1    2    0    0 -0.12852121046E+02  0.26168100484E+02  0.91147339771E+02  0.12500000000E+03  0.80419002446E+02 0.  1.
        -24    1    1    2    0    0  0.12852121046E+02 -0.26168100484E+02 -0.91147339771E+02  0.12500000000E+03  0.80419002446E+02 0. -1.
</event>
<event>
 4    1  0.1586888E-001  0.1250000E+03  0.7546771E-02  0.1126479E+00
        -11   -1    0    0    0    0  0.00000000000E+00  0.00000000000E+00  0.12500000000E+03  0.12500000000E+03  0.00000000000E+00 0.  1.
         11   -1    0    0    0    0 -0.00000000000E+00 -0.00000000000E+00 -0.12500000000E+03  0.12500000000E+03  0.00000000000E+00 0. -1.
         24    1    1    2    0    0  0.18556113636E+02  0.44066869733E+02  0.82894907469E+02  0.12500000000E+03  0.80419002446E+02 0.  1.
        -24    1    1    2    0    0 -0.18556113636E+02 -0.44066869733E+02 -0.82894907469E+02  0.12500000000E+03  0.80419002446E+02 0. -1.
</event>
<event>
 4    1  0.1586888E-001  0.1250000E+03  0.7546771E-02  0.1126479E+00
        -11   -1    0    0    0    0  0.00000000000E+00  0.00000000000E+00  0.12500000000E+03  0.12500000000E+03  0.00000000000E+00 0.  1.
         11   -1    0    0    0    0 -0.00000000000E+00 -0.00000000000E+00 -0.12500000000E+03  0.12500000000E+03  0.00000000000E+00 0. -1.
         24    1    1    2    0    0  0.70595981924E+01  0.82969176654E+02  0.47159960181E+02  0.12500000000E+03  0.80419002446E+02 0.  1.
        -24    1    1    2    0    0 -0.70595981924E+01 -0.82969176654E+02 -0.47159960181E+02  0.12500000000E+03  0.80419002446E+02 0. -1.
</event>
<event>
 4    1  0.1586888E-001  0.1250000E+03  0.7546771E-02  0.1126479E+00
        -11   -1    0    0    0    0  0.00000000000E+00  0.00000000000E+00  0.12500000000E+03  0.12500000000E+03  0.00000000000E+00 0. -1.
         11   -1    0    0    0    0 -0.00000000000E+00 -0.00000000000E+00 -0.12500000000E+03  0.12500000000E+03  0.00000000000E+00 0.  1.
         24    1    1    2    0    0  0.40479160518E+02  0.83027475407E+02 -0.25013195256E+02  0.12500000000E+03  0.80419002446E+02 0.  0.
        -24    1    1    2    0    0 -0.40479160518E+02 -0.83027475407E+02  0.25013195256E+02  0.12500000000E+03  0.80419002446E+02 0.  0.
</event>
<event>
 4    1  0.1586888E-001  0.1250000E+03  0.7546771E-02  0.1126479E+00
        -11   -1    0    0    0    0  0.00000000000E+00  0.00000000000E+00  0.12500000000E+03  0.12500000000E+03  0.00000000000E+00 0.  1.
         11   -1    0    0    0    0 -0.00000000000E+00 -0.00000000000E+00 -0.12500000000E+03  0.12500000000E+03  0.00000000000E+00 0. -1.
         24    1    1    2    0    0 -0.39458330110E+02 -0.15027808449E+02  0.85877757329E+02  0.12500000000E+03  0.80419002446E+02 0.  1.
        -24    1    1    2    0    0  0.39458330110E+02  0.15027808449E+02 -0.85877757329E+02  0.12500000000E+03  0.80419002446E+02 0. -1.
</event>
<event>
 4    1  0.1586888E-001  0.1250000E+03  0.7546771E-02  0.1126479E+00
        -11   -1    0    0    0    0  0.00000000000E+00  0.00000000000E+00  0.12500000000E+03  0.12500000000E+03  0.00000000000E+00 0.  1.
         11   -1    0    0    0    0 -0.00000000000E+00 -0.00000000000E+00 -0.12500000000E+03  0.12500000000E+03  0.00000000000E+00 0. -1.
         24    1    1    2    0    0  0.18510925250E+02  0.65349596238E+01  0.93661219268E+02  0.12500000000E+03  0.80419002446E+02 0.  1.
        -24    1    1    2    0    0 -0.18510925250E+02 -0.65349596238E+01 -0.93661219268E+02  0.12500000000E+03  0.80419002446E+02 0. -1.
</event>
<event>
 4    1  0.1586888E-001  0.1250000E+03  0.7546771E-02  0.1126479E+00
        -11   -1    0    0    0    0  0.00000000000E+00  0.00000000000E+00  0.12500000000E+03  0.12500000000E+03  0.00000000000E+00 0.  1.
         11   -1    0    0    0    0 -0.00000000000E+00 -0.00000000000E+00 -0.12500000000E+03  0.12500000000E+03  0.00000000000E+00 0. -1.
         24    1    1    2    0    0  0.26508864801E+02  0.58946373531E+02  0.70571872443E+02  0.12500000000E+03  0.80419002446E+02 0.  1.
        -24    1    1    2    0    0 -0.26508864801E+02 -0.58946373531E+02 -0.70571872443E+02  0.12500000000E+03  0.80419002446E+02 0. -1.
</event>
<event>
 4    1  0.1586888E-001  0.1250000E+03  0.7546771E-02  0.1126479E+00
        -11   -1    0    0    0    0  0.00000000000E+00  0.00000000000E+00  0.12500000000E+03  0.12500000000E+03  0.00000000000E+00 0.  1.
         11   -1    0    0    0    0 -0.00000000000E+00 -0.00000000000E+00 -0.12500000000E+03  0.12500000000E+03  0.00000000000E+00 0. -1.
         24    1    1    2    0    0  0.26024231206E+02 -0.19234486786E+02  0.90058636198E+02  0.12500000000E+03  0.80419002446E+02 0.  1.
        -24    1    1    2    0    0 -0.26024231206E+02  0.19234486786E+02 -0.90058636198E+02  0.12500000000E+03  0.80419002446E+02 0. -1.
</event>
<event>
 4    1  0.1586888E-001  0.1250000E+03  0.7546771E-02  0.1126479E+00
        -11   -1    0    0    0    0  0.00000000000E+00  0.00000000000E+00  0.12500000000E+03  0.12500000000E+03  0.00000000000E+00 0.  1.
         11   -1    0    0    0    0 -0.00000000000E+00 -0.00000000000E+00 -0.12500000000E+03  0.12500000000E+03  0.00000000000E+00 0. -1.
         24    1    1    2    0    0  0.10477940752E+01 -0.24722912565E+02  0.92441677654E+02  0.12500000000E+03  0.80419002446E+02 0.  1.
        -24    1    1    2    0    0 -0.10477940752E+01  0.24722912565E+02 -0.92441677654E+02  0.12500000000E+03  0.80419002446E+02 0. -1.
</event>
<event>
 4    1  0.1586888E-001  0.1250000E+03  0.7546771E-02  0.1126479E+00
        -11   -1    0    0    0    0  0.00000000000E+00  0.00000000000E+00  0.12500000000E+03  0.12500000000E+03  0.00000000000E+00 0.  1.
         11   -1    0    0    0    0 -0.00000000000E+00 -0.00000000000E+00 -0.12500000000E+03  0.12500000000E+03  0.00000000000E+00 0. -1.
         24    1    1    2    0    0 -0.75075219524E+02  0.26577394574E+02  0.53057869885E+02  0.12500000000E+03  0.80419002446E+02 0.  1.
        -24    1    1    2    0    0  0.75075219524E+02 -0.26577394574E+02 -0.53057869885E+02  0.12500000000E+03  0.80419002446E+02 0. -1.
</event>
<event>
 4    1  0.1586888E-001  0.1250000E+03  0.7546771E-02  0.1126479E+00
        -11   -1    0    0    0    0  0.00000000000E+00  0.00000000000E+00  0.12500000000E+03  0.12500000000E+03  0.00000000000E+00 0.  1.
         11   -1    0    0    0    0 -0.00000000000E+00 -0.00000000000E+00 -0.12500000000E+03  0.12500000000E+03  0.00000000000E+00 0. -1.
         24    1    1    2    0    0 -0.62656406212E+02  0.29351167938E+01  0.72272705053E+02  0.12500000000E+03  0.80419002446E+02 0.  1.
        -24    1    1    2    0    0  0.62656406212E+02 -0.29351167938E+01 -0.72272705053E+02  0.12500000000E+03  0.80419002446E+02 0. -1.
</event>
<event>
 4    1  0.1586888E-001  0.1250000E+03  0.7546771E-02  0.1126479E+00
        -11   -1    0    0    0    0  0.00000000000E+00  0.00000000000E+00  0.12500000000E+03  0.12500000000E+03  0.00000000000E+00 0.  1.
         11   -1    0    0    0    0 -0.00000000000E+00 -0.00000000000E+00 -0.12500000000E+03  0.12500000000E+03  0.00000000000E+00 0. -1.
         24    1    1    2    0    0 -0.25512100539E+02  0.87671706160E+02 -0.28645919616E+02  0.12500000000E+03  0.80419002446E+02 0.  1.
        -24    1    1    2    0    0  0.25512100539E+02 -0.87671706160E+02  0.28645919616E+02  0.12500000000E+03  0.80419002446E+02 0.  0.
</event>
<event>
 4    1  0.1586888E-001  0.1250000E+03  0.7546771E-02  0.1126479E+00
        -11   -1    0    0    0    0  0.00000000000E+00  0.00000000000E+00  0.12500000000E+03  0.12500000000E+03  0.00000000000E+00 0.  1.
         11   -1    0    0    0    0 -0.00000000000E+00 -0.00000000000E+00 -0.12500000000E+03  0.12500000000E+03  0.00000000000E+00 0. -1.
         24    1    1    2    0    0  0.53247990268E+02 -0.67235456519E+02 -0.42447955954E+02  0.12500000000E+03  0.80419002446E+02 0. -1.
        -24    1    1    2    0    0 -0.53247990268E+02  0.67235456519E+02  0.42447955954E+02  0.12500000000E+03  0.80419002446E+02 0.  1.
</event>
<event>
 4    1  0.1586888E-001  0.1250000E+03  0.7546771E-02  0.1126479E+00
        -11   -1    0    0    0    0  0.00000000000E+00  0.00000000000E+00  0.12500000000E+03  0.12500000000E+03  0.00000000000E+00 0.  1.
         11   -1    0    0    0    0 -0.00000000000E+00 -0.00000000000E+00 -0.12500000000E+03  0.12500000000E+03  0.00000000000E+00 0. -1.
         24    1    1    2    0    0  0.43793967249E+01 -0.43462179838E+02  0.85144840441E+02  0.12500000000E+03  0.80419002446E+02 0.  1.
        -24    1    1    2    0    0 -0.43793967249E+01  0.43462179838E+02 -0.85144840441E+02  0.12500000000E+03  0.80419002446E+02 0. -1.
</event>
<event>
 4    1  0.1586888E-001  0.1250000E+03  0.7546771E-02  0.1126479E+00
        -11   -1    0    0    0    0  0.00000000000E+00  0.00000000000E+00  0.12500000000E+03  0.12500000000E+03  0.00000000000E+00 0.  1.
         11   -1    0    0    0    0 -0.00000000000E+00 -0.00000000000E+00 -0.12500000000E+03  0.12500000000E+03  0.00000000000E+00 0. -1.
         24    1    1    2    0    0 -0.52459412814E+02 -0.21350744314E+02  0.77135852689E+02  0.12500000000E+03  0.80419002446E+02 0.  1.
        -24    1    1    2    0    0  0.52459412814E+02  0.21350744314E+02 -0.77135852689E+02  0.12500000000E+03  0.80419002446E+02 0. -1.
</event>
<event>
 4    1  0.1586888E-001  0.1250000E+03  0.7546771E-02  0.1126479E+00
        -11   -1    0    0    0    0  0.00000000000E+00  0.00000000000E+00  0.12500000000E+03  0.12500000000E+03  0.00000000000E+00 0.  1.
         11   -1    0    0    0    0 -0.00000000000E+00 -0.00000000000E+00 -0.12500000000E+03  0.12500000000E+03  0.00000000000E+00 0. -1.
         24    1    1    2    0    0 -0.26753436147E+02  0.30631129897E+02  0.86624312876E+02  0.12500000000E+03  0.80419002446E+02 0.  1.
        -24    1    1    2    0    0  0.26753436147E+02 -0.30631129897E+02 -0.86624312876E+02  0.12500000000E+03  0.80419002446E+02 0. -1.
</event>
<event>
 4    1  0.1586888E-001  0.1250000E+03  0.7546771E-02  0.1126479E+00
        -11   -1    0    0    0    0  0.00000000000E+00  0.00000000000E+00  0.12500000000E+03  0.12500000000E+03  0.00000000000E+00 0.  1.
         11   -1    0    0    0    0 -0.00000000000E+00 -0.00000000000E+00 -0.12500000000E+03  0.12500000000E+03  0.00000000000E+00 0. -1.
         24    1    1    2    0    0 -0.43107850211E+02 -0.60282187078E+02  0.60543828892E+02  0.12500000000E+03  0.80419002446E+02 0. -1.
        -24    1    1    2    0    0  0.43107850211E+02  0.60282187078E+02 -0.60543828892E+02  0.12500000000E+03  0.80419002446E+02 0.  1.
</event>
<event>
 4    1  0.1586888E-001  0.1250000E+03  0.7546771E-02  0.1126479E+00
        -11   -1    0    0    0    0  0.00000000000E+00  0.00000000000E+00  0.12500000000E+03  0.12500000000E+03  0.00000000000E+00 0.  1.
         11   -1    0    0    0    0 -0.00000000000E+00 -0.00000000000E+00 -0.12500000000E+03  0.12500000000E+03  0.00000000000E+00 0. -1.
         24    1    1    2    0    0 -0.49429528235E+02 -0.79448923438E+02 -0.20059270891E+02  0.12500000000E+03  0.80419002446E+02 0.  0.
        -24    1    1    2    0    0  0.49429528235E+02  0.79448923438E+02  0.20059270891E+02  0.12500000000E+03  0.80419002446E+02 0. -1.
</event>
<event>
 4    1  0.1586888E-001  0.1250000E+03  0.7546771E-02  0.1126479E+00
        -11   -1    0    0    0    0  0.00000000000E+00  0.00000000000E+00  0.12500000000E+03  0.12500000000E+03  0.00000000000E+00 0.  1.
         11   -1    0    0    0    0 -0.00000000000E+00 -0.00000000000E+00 -0.12500000000E+03  0.12500000000E+03  0.00000000000E+00 0. -1.
         24    1    1    2    0    0 -0.10042649678E+02 -0.74944305411E+02  0.58653902850E+02  0.12500000000E+03  0.80419002446E+02 0.  1.
        -24    1    1    2    0    0  0.10042649678E+02  0.74944305411E+02 -0.58653902850E+02  0.12500000000E+03  0.80419002446E+02 0. -1.
</event>
<event>
 4    1  0.1586888E-001  0.1250000E+03  0.7546771E-02  0.1126479E+00
        -11   -1    0    0    0    0  0.00000000000E+00  0.00000000000E+00  0.12500000000E+03  0.12500000000E+03  0.00000000000E+00 0.  1.
         11   -1    0    0    0    0 -0.00000000000E+00 -0.00000000000E+00 -0.12500000000E+03  0.12500000000E+03  0.00000000000E+00 0. -1.
         24    1    1    2    0    0 -0.89013283393E+02 -0.98991251164E+01  0.33710929193E+02  0.12500000000E+03  0.80419002446E+02 0.  1.
        -24    1    1    2    0    0  0.89013283393E+02  0.98991251164E+01 -0.33710929193E+02  0.12500000000E+03  0.80419002446E+02 0. -1.
</event>
<event>
 4    1  0.1586888E-001  0.1250000E+03  0.7546771E-02  0.1126479E+00
        -11   -1    0    0    0    0  0.00000000000E+00  0.00000000000E+00  0.12500000000E+03  0.12500000000E+03  0.00000000000E+00 0.  1.
         11   -1    0    0    0    0 -0.00000000000E+00 -0.00000000000E+00 -0.12500000000E+03  0.12500000000E+03  0.00000000000E+00 0. -1.
         24    1    1    2    0    0  0.11916118570E+02  0.90178576210E+01  0.94522316983E+02  0.12500000000E+03  0.80419002446E+02 0.  0.
        -24    1    1    2    0    0 -0.11916118570E+02 -0.90178576210E+01 -0.94522316983E+02  0.12500000000E+03  0.80419002446E+02 0.  0.
</event>
<event>
 4    1  0.1586888E-001  0.1250000E+03  0.7546771E-02  0.1126479E+00
        -11   -1    0    0    0    0  0.00000000000E+00  0.00000000000E+00  0.12500000000E+03  0.12500000000E+03  0.00000000000E+00 0.  1.
         11   -1    0    0    0    0 -0.00000000000E+00 -0.00000000000E+00 -0.12500000000E+03  0.12500000000E+03  0.00000000000E+00 0. -1.
         24    1    1    2    0    0  0.77848711431E+02 -0.46743947409E+02  0.30205389501E+02  0.12500000000E+03  0.80419002446E+02 0.  1.
        -24    1    1    2    0    0 -0.77848711431E+02  0.46743947409E+02 -0.30205389501E+02  0.12500000000E+03  0.80419002446E+02 0. -1.
</event>
<event>
 4    1  0.1586888E-001  0.1250000E+03  0.7546771E-02  0.1126479E+00
        -11   -1    0    0    0    0  0.00000000000E+00  0.00000000000E+00  0.12500000000E+03  0.12500000000E+03  0.00000000000E+00 0.  1.
         11   -1    0    0    0    0 -0.00000000000E+00 -0.00000000000E+00 -0.12500000000E+03  0.12500000000E+03  0.00000000000E+00 0. -1.
         24    1    1    2    0    0 -0.14446318131E+02 -0.94034631627E+02 -0.10323564932E+02  0.12500000000E+03  0.80419002446E+02 0.  1.
        -24    1    1    2    0    0  0.14446318131E+02  0.94034631627E+02  0.10323564932E+02  0.12500000000E+03  0.80419002446E+02 0. -1.
</event>
<event>
 4    1  0.1586888E-001  0.1250000E+03  0.7546771E-02  0.1126479E+00
        -11   -1    0    0    0    0  0.00000000000E+00  0.00000000000E+00  0.12500000000E+03  0.12500000000E+03  0.00000000000E+00 0.  1.
         11   -1    0    0    0    0 -0.00000000000E+00 -0.00000000000E+00 -0.12500000000E+03  0.12500000000E+03  0.00000000000E+00 0. -1.
         24    1    1    2    0    0  0.11462370552E+02  0.19479296873E+02  0.92989005266E+02  0.12500000000E+03  0.80419002446E+02 0.  1.
        -24    1    1    2    0    0 -0.11462370552E+02 -0.19479296873E+02 -0.92989005266E+02  0.12500000000E+03  0.80419002446E+02 0. -1.
</event>
<event>
 4    1  0.1586888E-001  0.1250000E+03  0.7546771E-02  0.1126479E+00
        -11   -1    0    0    0    0  0.00000000000E+00  0.00000000000E+00  0.12500000000E+03  0.12500000000E+03  0.00000000000E+00 0.  1.
         11   -1    0    0    0    0 -0.00000000000E+00 -0.00000000000E+00 -0.12500000000E+03  0.12500000000E+03  0.00000000000E+00 0. -1.
         24    1    1    2    0    0  0.32702381514E+02 -0.26090090325E+02  0.86067679623E+02  0.12500000000E+03  0.80419002446E+02 0.  1.
        -24    1    1    2    0    0 -0.32702381514E+02  0.26090090325E+02 -0.86067679623E+02  0.12500000000E+03  0.80419002446E+02 0. -1.
</event>
<event>
 4    1  0.1586888E-001  0.1250000E+03  0.7546771E-02  0.1126479E+00
        -11   -1    0    0    0    0  0.00000000000E+00  0.00000000000E+00  0.12500000000E+03  0.12500000000E+03  0.00000000000E+00 0.  1.
         11   -1    0    0    0    0 -0.00000000000E+00 -0.00000000000E+00 -0.12500000000E+03  0.12500000000E+03  0.00000000000E+00 0. -1.
         24    1    1    2    0    0  0.18878038585E+02 -0.63440377803E+02  0.69113834859E+02  0.12500000000E+03  0.80419002446E+02 0.  1.
        -24    1    1    2    0    0 -0.18878038585E+02  0.63440377803E+02 -0.69113834859E+02  0.12500000000E+03  0.80419002446E+02 0. -1.
</event>
<event>
 4    1  0.1586888E-001  0.1250000E+03  0.7546771E-02  0.1126479E+00
        -11   -1    0    0    0    0  0.00000000000E+00  0.00000000000E+00  0.12500000000E+03  0.12500000000E+03  0.00000000000E+00 0.  1.
         11   -1    0    0    0    0 -0.00000000000E+00 -0.00000000000E+00 -0.12500000000E+03  0.12500000000E+03  0.00000000000E+00 0. -1.
         24    1    1    2    0    0  0.66314577070E+02  0.62024683421E+02 -0.30217537295E+02  0.12500000000E+03  0.80419002446E+02 0.  1.
        -24    1    1    2    0    0 -0.66314577070E+02 -0.62024683421E+02  0.30217537295E+02  0.12500000000E+03  0.80419002446E+02 0. -1.
</event>
<event>
 4    1  0.1586888E-001  0.1250000E+03  0.7546771E-02  0.1126479E+00
        -11   -1    0    0    0    0  0.00000000000E+00  0.00000000000E+00  0.12500000000E+03  0.12500000000E+03  0.00000000000E+00 0.  1.
         11   -1    0    0    0    0 -0.00000000000E+00 -0.00000000000E+00 -0.12500000000E+03  0.12500000000E+03  0.00000000000E+00 0. -1.
         24    1    1    2    0    0  0.32867469996E+02  0.89598997983E+02  0.70379700308E+01  0.12500000000E+03  0.80419002446E+02 0.  0.
        -24    1    1    2    0    0 -0.32867469996E+02 -0.89598997983E+02 -0.70379700308E+01  0.12500000000E+03  0.80419002446E+02 0.  0.
</event>
<event>
 4    1  0.1586888E-001  0.1250000E+03  0.7546771E-02  0.1126479E+00
        -11   -1    0    0    0    0  0.00000000000E+00  0.00000000000E+00  0.12500000000E+03  0.12500000000E+03  0.00000000000E+00 0.  1.
         11   -1    0    0    0    0 -0.00000000000E+00 -0.00000000000E+00 -0.12500000000E+03  0.12500000000E+03  0.00000000000E+00 0. -1.
         24    1    1    2    0    0 -0.47122807151E+02 -0.38241236778E+02  0.73992113779E+02  0.12500000000E+03  0.80419002446E+02 0.  1.
        -24    1    1    2    0    0  0.47122807151E+02  0.38241236778E+02 -0.73992113779E+02  0.12500000000E+03  0.80419002446E+02 0. -1.
</event>
<event>
 4    1  0.1586888E-001  0.1250000E+03  0.7546771E-02  0.1126479E+00
        -11   -1    0    0    0    0  0.00000000000E+00  0.00000000000E+00  0.12500000000E+03  0.12500000000E+03  0.00000000000E+00 0.  1.
         11   -1    0    0    0    0 -0.00000000000E+00 -0.00000000000E+00 -0.12500000000E+03  0.12500000000E+03  0.00000000000E+00 0. -1.
         24    1    1    2    0    0 -0.18963266696E+02  0.75850044261E+01  0.93491423509E+02  0.12500000000E+03  0.80419002446E+02 0.  1.
        -24    1    1    2    0    0  0.18963266696E+02 -0.75850044261E+01 -0.93491423509E+02  0.12500000000E+03  0.80419002446E+02 0. -1.
</event>
<event>
 4    1  0.1586888E-001  0.1250000E+03  0.7546771E-02  0.1126479E+00
        -11   -1    0    0    0    0  0.00000000000E+00  0.00000000000E+00  0.12500000000E+03  0.12500000000E+03  0.00000000000E+00 0.  1.
         11   -1    0    0    0    0 -0.00000000000E+00 -0.00000000000E+00 -0.12500000000E+03  0.12500000000E+03  0.00000000000E+00 0. -1.
         24    1    1    2    0    0  0.75580629246E+01 -0.73617292463E+01  0.95112904871E+02  0.12500000000E+03  0.80419002446E+02 0.  1.
        -24    1    1    2    0    0 -0.75580629246E+01  0.73617292463E+01 -0.95112904871E+02  0.12500000000E+03  0.80419002446E+02 0.  0.
</event>
<event>
 4    1  0.1586888E-001  0.1250000E+03  0.7546771E-02  0.1126479E+00
        -11   -1    0    0    0    0  0.00000000000E+00  0.00000000000E+00  0.12500000000E+03  0.12500000000E+03  0.00000000000E+00 0.  1.
         11   -1    0    0    0    0 -0.00000000000E+00 -0.00000000000E+00 -0.12500000000E+03  0.12500000000E+03  0.00000000000E+00 0. -1.
         24    1    1    2    0    0  0.46380496194E+02 -0.38930297549E+02  0.74101724347E+02  0.12500000000E+03  0.80419002446E+02 0.  1.
        -24    1    1    2    0    0 -0.46380496194E+02  0.38930297549E+02 -0.74101724347E+02  0.12500000000E+03  0.80419002446E+02 0. -1.
</event>
<event>
 4    1  0.1586888E-001  0.1250000E+03  0.7546771E-02  0.1126479E+00
        -11   -1    0    0    0    0  0.00000000000E+00  0.00000000000E+00  0.12500000000E+03  0.12500000000E+03  0.00000000000E+00 0.  1.
         11   -1    0    0    0    0 -0.00000000000E+00 -0.00000000000E+00 -0.12500000000E+03  0.12500000000E+03  0.00000000000E+00 0. -1.
         24    1    1    2    0    0 -0.14057692038E+02  0.22086733650E+02  0.92045323275E+02  0.12500000000E+03  0.80419002446E+02 0.  1.
        -24    1    1    2    0    0  0.14057692038E+02 -0.22086733650E+02 -0.92045323275E+02  0.12500000000E+03  0.80419002446E+02 0. -1.
</event>
<event>
 4    1  0.1586888E-001  0.1250000E+03  0.7546771E-02  0.1126479E+00
        -11   -1    0    0    0    0  0.00000000000E+00  0.00000000000E+00  0.12500000000E+03  0.12500000000E+03  0.00000000000E+00 0.  1.
         11   -1    0    0    0    0 -0.00000000000E+00 -0.00000000000E+00 -0.12500000000E+03  0.12500000000E+03  0.00000000000E+00 0. -1.
         24    1    1    2    0    0  0.71518639516E+02  0.33634815453E+02 -0.53958942139E+02  0.12500000000E+03  0.80419002446E+02 0.  0.
        -24    1    1    2    0    0 -0.71518639516E+02 -0.33634815453E+02  0.53958942139E+02  0.12500000000E+03  0.80419002446E+02 0.  0.
</event>
<event>
 4    1  0.1586888E-001  0.1250000E+03  0.7546771E-02  0.1126479E+00
        -11   -1    0    0    0    0  0.00000000000E+00  0.00000000000E+00  0.12500000000E+03  0.12500000000E+03  0.00000000000E+00 0.  1.
         11   -1    0    0    0    0 -0.00000000000E+00 -0.00000000000E+00 -0.12500000000E+03  0.12500000000E+03  0.00000000000E+00 0. -1.
         24    1    1    2    0    0 -0.40801792034E+01  0.16274786341E+02  0.94213945427E+02  0.12500000000E+03  0.80419002446E+02 0.  1.
        -24    1    1    2    0    0  0.40801792034E+01 -0.16274786341E+02 -0.94213945427E+02  0.12500000000E+03  0.80419002446E+02 0. -1.
</event>
<event>
 4    1  0.1586888E-001  0.1250000E+03  0.7546771E-02  0.1126479E+00
        -11   -1    0    0    0    0  0.00000000000E+00  0.00000000000E+00  0.12500000000E+03  0.12500000000E+03  0.00000000000E+00 0.  1.
         11   -1    0    0    0    0 -0.00000000000E+00 -0.00000000000E+00 -0.12500000000E+03  0.12500000000E+03  0.00000000000E+00 0. -1.
         24    1    1    2    0    0 -0.32764714885E+02 -0.64186889440E+02  0.62962693145E+02  0.12500000000E+03  0.80419002446E+02 0.  1.
        -24    1    1    2    0    0  0.32764714885E+02  0.64186889440E+02 -0.62962693145E+02  0.12500000000E+03  0.80419002446E+02 0. -1.
</event>
<event>
 4    1  0.1586888E-001  0.1250000E+03  0.7546771E-02  0.1126479E+00
        -11   -1    0    0    0    0  0.00000000000E+00  0.00000000000E+00  0.12500000000E+03  0.12500000000E+03  0.00000000000E+00 0.  1.
         11   -1    0    0    0    0 -0.00000000000E+00 -0.00000000000E+00 -0.12500000000E+03  0.12500000000E+03  0.00000000000E+00 0. -1.
         24    1    1    2    0    0 -0.86080840707E+02 -0.31364584435E+02  0.27643005482E+02  0.12500000000E+03  0.80419002446E+02 0.  0.
        -24    1    1    2    0    0  0.86080840707E+02  0.31364584435E+02 -0.27643005482E+02  0.12500000000E+03  0.80419002446E+02 0. -1.
</event>
<event>
 4    1  0.1586888E-001  0.1250000E+03  0.7546771E-02  0.1126479E+00
        -11   -1    0    0    0    0  0.00000000000E+00  0.00000000000E+00  0.12500000000E+03  0.12500000000E+03  0.00000000000E+00 0.  1.
         11   -1    0    0    0    0 -0.00000000000E+00 -0.00000000000E+00 -0.12500000000E+03  0.12500000000E+03  0.00000000000E+00 0. -1.
         24    1    1    2    0    0  0.22096162483E+02  0.32804494452E+02  0.87140167505E+02  0.12500000000E+03  0.80419002446E+02 0.  1.
        -24    1    1    2    0    0 -0.22096162483E+02 -0.32804494452E+02 -0.87140167505E+02  0.12500000000E+03  0.80419002446E+02 0. -1.
</event>
<event>
 4    1  0.1586888E-001  0.1250000E+03  0.7546771E-02  0.1126479E+00
        -11   -1    0    0    0    0  0.00000000000E+00  0.00000000000E+00  0.12500000000E+03  0.12500000000E+03  0.00000000000E+00 0.  1.
         11   -1    0    0    0    0 -0.00000000000E+00 -0.00000000000E+00 -0.12500000000E+03  0.12500000000E+03  0.00000000000E+00 0. -1.
         24    1    1    2    0    0  0.67382507829E+02 -0.45537207872E+02  0.50435546826E+02  0.12500000000E+03  0.80419002446E+02 0.  0.
        -24    1    1    2    0    0 -0.67382507829E+02  0.45537207872E+02 -0.50435546826E+02  0.12500000000E+03  0.80419002446E+02 0.  1.
</event>
<event>
 4    1  0.1586888E-001  0.1250000E+03  0.7546771E-02  0.1126479E+00
        -11   -1    0    0    0    0  0.00000000000E+00  0.00000000000E+00  0.12500000000E+03  0.12500000000E+03  0.00000000000E+00 0.  1.
         11   -1    0    0    0    0 -0.00000000000E+00 -0.00000000000E+00 -0.12500000000E+03  0.12500000000E+03  0.00000000000E+00 0. -1.
         24    1    1    2    0    0 -0.20036348816E+02  0.91050483429E+02  0.21590234809E+02  0.12500000000E+03  0.80419002446E+02 0. -1.
        -24    1    1    2    0    0  0.20036348816E+02 -0.91050483429E+02 -0.21590234809E+02  0.12500000000E+03  0.80419002446E+02 0.  1.
</event>
<event>
 4    1  0.1586888E-001  0.1250000E+03  0.7546771E-02  0.1126479E+00
        -11   -1    0    0    0    0  0.00000000000E+00  0.00000000000E+00  0.12500000000E+03  0.12500000000E+03  0.00000000000E+00 0.  1.
         11   -1    0    0    0    0 -0.00000000000E+00 -0.00000000000E+00 -0.12500000000E+03  0.12500000000E+03  0.00000000000E+00 0. -1.
         24    1    1    2    0    0  0.70813872345E+02  0.25119531211E+02  0.59263721456E+02  0.12500000000E+03  0.80419002446E+02 0. -1.
        -24    1    1    2    0    0 -0.70813872345E+02 -0.25119531211E+02 -0.59263721456E+02  0.12500000000E+03  0.80419002446E+02 0.  1.
</event>
<event>
 4    1  0.1586888E-001  0.1250000E+03  0.7546771E-02  0.1126479E+00
        -11   -1    0    0    0    0  0.00000000000E+00  0.00000000000E+00  0.12500000000E+03  0.12500000000E+03  0.00000000000E+00 0.  1.
         11   -1    0    0    0    0 -0.00000000000E+00 -0.00000000000E+00 -0.12500000000E+03  0.12500000000E+03  0.00000000000E+00 0. -1.
         24    1    1    2    0    0 -0.21630971803E+02  0.13835384690E+01  0.93209285620E+02  0.12500000000E+03  0.80419002446E+02 0.  1.
        -24    1    1    2    0    0  0.21630971803E+02 -0.13835384690E+01 -0.93209285620E+02  0.12500000000E+03  0.80419002446E+02 0. -1.
</event>
<event>
 4    1  0.1586888E-001  0.1250000E+03  0.7546771E-02  0.1126479E+00
        -11   -1    0    0    0    0  0.00000000000E+00  0.00000000000E+00  0.12500000000E+03  0.12500000000E+03  0.00000000000E+00 0.  1.
         11   -1    0    0    0    0 -0.00000000000E+00 -0.00000000000E+00 -0.12500000000E+03  0.12500000000E+03  0.00000000000E+00 0. -1.
         24    1    1    2    0    0  0.38659094219E+02 -0.70233754893E+02 -0.52253977393E+02  0.12500000000E+03  0.80419002446E+02 0.  1.
        -24    1    1    2    0    0 -0.38659094219E+02  0.70233754893E+02  0.52253977393E+02  0.12500000000E+03  0.80419002446E+02 0.  0.
</event>
<event>
 4    1  0.1586888E-001  0.1250000E+03  0.7546771E-02  0.1126479E+00
        -11   -1    0    0    0    0  0.00000000000E+00  0.00000000000E+00  0.12500000000E+03  0.12500000000E+03  0.00000000000E+00 0.  1.
         11   -1    0    0    0    0 -0.00000000000E+00 -0.00000000000E+00 -0.12500000000E+03  0.12500000000E+03  0.00000000000E+00 0. -1.
         24    1    1    2    0    0 -0.63287040877E+02 -0.57516290549E+02 -0.42946604339E+02  0.12500000000E+03  0.80419002446E+02 0. -1.
        -24    1    1    2    0    0  0.63287040877E+02  0.57516290549E+02  0.42946604339E+02  0.12500000000E+03  0.80419002446E+02 0.  1.
</event>
<event>
 4    1  0.1586888E-001  0.1250000E+03  0.7546771E-02  0.1126479E+00
        -11   -1    0    0    0    0  0.00000000000E+00  0.00000000000E+00  0.12500000000E+03  0.12500000000E+03  0.00000000000E+00 0.  1.
         11   -1    0    0    0    0 -0.00000000000E+00 -0.00000000000E+00 -0.12500000000E+03  0.12500000000E+03  0.00000000000E+00 0. -1.
         24    1    1    2    0    0 -0.63303208440E+01 -0.82991386338E+02  0.47224367410E+02  0.12500000000E+03  0.80419002446E+02 0.  1.
        -24    1    1    2    0    0  0.63303208440E+01  0.82991386338E+02 -0.47224367410E+02  0.12500000000E+03  0.80419002446E+02 0. -1.
</event>
<event>
 4    1  0.1586888E-001  0.1250000E+03  0.7546771E-02  0.1126479E+00
        -11   -1    0    0    0    0  0.00000000000E+00  0.00000000000E+00  0.12500000000E+03  0.12500000000E+03  0.00000000000E+00 0.  1.
         11   -1    0    0    0    0 -0.00000000000E+00 -0.00000000000E+00 -0.12500000000E+03  0.12500000000E+03  0.00000000000E+00 0. -1.
         24    1    1    2    0    0 -0.43369753704E+02  0.12838577125E+02  0.84332789867E+02  0.12500000000E+03  0.80419002446E+02 0.  1.
        -24    1    1    2    0    0  0.43369753704E+02 -0.12838577125E+02 -0.84332789867E+02  0.12500000000E+03  0.80419002446E+02 0. -1.
</event>
<event>
 4    1  0.1586888E-001  0.1250000E+03  0.7546771E-02  0.1126479E+00
        -11   -1    0    0    0    0  0.00000000000E+00  0.00000000000E+00  0.12500000000E+03  0.12500000000E+03  0.00000000000E+00 0.  1.
         11   -1    0    0    0    0 -0.00000000000E+00 -0.00000000000E+00 -0.12500000000E+03  0.12500000000E+03  0.00000000000E+00 0. -1.
         24    1    1    2    0    0  0.88011358562E+02  0.34360676508E+02  0.15202918125E+02  0.12500000000E+03  0.80419002446E+02 0.  1.
        -24    1    1    2    0    0 -0.88011358562E+02 -0.34360676508E+02 -0.15202918125E+02  0.12500000000E+03  0.80419002446E+02 0. -1.
</event>
<event>
 4    1  0.1586888E-001  0.1250000E+03  0.7546771E-02  0.1126479E+00
        -11   -1    0    0    0    0  0.00000000000E+00  0.00000000000E+00  0.12500000000E+03  0.12500000000E+03  0.00000000000E+00 0.  1.
         11   -1    0    0    0    0 -0.00000000000E+00 -0.00000000000E+00 -0.12500000000E+03  0.12500000000E+03  0.00000000000E+00 0. -1.
         24    1    1    2    0    0  0.90143137361E+02 -0.64566187165E+01  0.31469205696E+02  0.12500000000E+03  0.80419002446E+02 0.  0.
        -24    1    1    2    0    0 -0.90143137361E+02  0.64566187165E+01 -0.31469205696E+02  0.12500000000E+03  0.80419002446E+02 0. -1.
</event>
<event>
 4    1  0.1586888E-001  0.1250000E+03  0.7546771E-02  0.1126479E+00
        -11   -1    0    0    0    0  0.00000000000E+00  0.00000000000E+00  0.12500000000E+03  0.12500000000E+03  0.00000000000E+00 0.  1.
         11   -1    0    0    0    0 -0.00000000000E+00 -0.00000000000E+00 -0.12500000000E+03  0.12500000000E+03  0.00000000000E+00 0. -1.
         24    1    1    2    0    0  0.10299730399E+01  0.15627103239E+02  0.94406127161E+02  0.12500000000E+03  0.80419002446E+02 0.  1.
        -24    1    1    2    0    0 -0.10299730399E+01 -0.15627103239E+02 -0.94406127161E+02  0.12500000000E+03  0.80419002446E+02 0. -1.
</event>
<event>
 4    1  0.1586888E-001  0.1250000E+03  0.7546771E-02  0.1126479E+00
        -11   -1    0    0    0    0  0.00000000000E+00  0.00000000000E+00  0.12500000000E+03  0.12500000000E+03  0.00000000000E+00 0.  1.
         11   -1    0    0    0    0 -0.00000000000E+00 -0.00000000000E+00 -0.12500000000E+03  0.12500000000E+03  0.00000000000E+00 0. -1.
         24    1    1    2    0    0 -0.43247377972E+02  0.70450768397E+02 -0.48209310059E+02  0.12500000000E+03  0.80419002446E+02 0.  1.
        -24    1    1    2    0    0  0.43247377972E+02 -0.70450768397E+02  0.48209310059E+02  0.12500000000E+03  0.80419002446E+02 0. -1.
</event>
<event>
 4    1  0.1586888E-001  0.1250000E+03  0.7546771E-02  0.1126479E+00
        -11   -1    0    0    0    0  0.00000000000E+00  0.00000000000E+00  0.12500000000E+03  0.12500000000E+03  0.00000000000E+00 0.  1.
         11   -1    0    0    0    0 -0.00000000000E+00 -0.00000000000E+00 -0.12500000000E+03  0.12500000000E+03  0.00000000000E+00 0. -1.
         24    1    1    2    0    0 -0.34835542568E+02  0.26275083719E+02  0.85169765734E+02  0.12500000000E+03  0.80419002446E+02 0.  1.
        -24    1    1    2    0    0  0.34835542568E+02 -0.26275083719E+02 -0.85169765734E+02  0.12500000000E+03  0.80419002446E+02 0. -1.
</event>
<event>
 4    1  0.1586888E-001  0.1250000E+03  0.7546771E-02  0.1126479E+00
        -11   -1    0    0    0    0  0.00000000000E+00  0.00000000000E+00  0.12500000000E+03  0.12500000000E+03  0.00000000000E+00 0.  1.
         11   -1    0    0    0    0 -0.00000000000E+00 -0.00000000000E+00 -0.12500000000E+03  0.12500000000E+03  0.00000000000E+00 0. -1.
         24    1    1    2    0    0 -0.64497526123E+02  0.30953446904E+02  0.63558927731E+02  0.12500000000E+03  0.80419002446E+02 0.  1.
        -24    1    1    2    0    0  0.64497526123E+02 -0.30953446904E+02 -0.63558927731E+02  0.12500000000E+03  0.80419002446E+02 0. -1.
</event>
<event>
 4    1  0.1586888E-001  0.1250000E+03  0.7546771E-02  0.1126479E+00
        -11   -1    0    0    0    0  0.00000000000E+00  0.00000000000E+00  0.12500000000E+03  0.12500000000E+03  0.00000000000E+00 0.  1.
         11   -1    0    0    0    0 -0.00000000000E+00 -0.00000000000E+00 -0.12500000000E+03  0.12500000000E+03  0.00000000000E+00 0. -1.
         24    1    1    2    0    0  0.17762472350E+02  0.80551825468E+02  0.48514761006E+02  0.12500000000E+03  0.80419002446E+02 0. -1.
        -24    1    1    2    0    0 -0.17762472350E+02 -0.80551825468E+02 -0.48514761006E+02  0.12500000000E+03  0.80419002446E+02 0.  1.
</event>
<event>
 4    1  0.1586888E-001  0.1250000E+03  0.7546771E-02  0.1126479E+00
        -11   -1    0    0    0    0  0.00000000000E+00  0.00000000000E+00  0.12500000000E+03  0.12500000000E+03  0.00000000000E+00 0.  1.
         11   -1    0    0    0    0 -0.00000000000E+00 -0.00000000000E+00 -0.12500000000E+03  0.12500000000E+03  0.00000000000E+00 0. -1.
         24    1    1    2    0    0  0.29992598060E+01 -0.15386675542E+02  0.94403594752E+02  0.12500000000E+03  0.80419002446E+02 0.  0.
        -24    1    1    2    0    0 -0.29992598060E+01  0.15386675542E+02 -0.94403594752E+02  0.12500000000E+03  0.80419002446E+02 0. -1.
</event>
<event>
 4    1  0.1586888E-001  0.1250000E+03  0.7546771E-02  0.1126479E+00
        -11   -1    0    0    0    0  0.00000000000E+00  0.00000000000E+00  0.12500000000E+03  0.12500000000E+03  0.00000000000E+00 0.  1.
         11   -1    0    0    0    0 -0.00000000000E+00 -0.00000000000E+00 -0.12500000000E+03  0.12500000000E+03  0.00000000000E+00 0. -1.
         24    1    1    2    0    0  0.16505363147E+02  0.44297292609E+01  0.94158029566E+02  0.12500000000E+03  0.80419002446E+02 0.  1.
        -24    1    1    2    0    0 -0.16505363147E+02 -0.44297292609E+01 -0.94158029566E+02  0.12500000000E+03  0.80419002446E+02 0. -1.
</event>
<event>
 4    1  0.1586888E-001  0.1250000E+03  0.7546771E-02  0.1126479E+00
        -11   -1    0    0    0    0  0.00000000000E+00  0.00000000000E+00  0.12500000000E+03  0.12500000000E+03  0.00000000000E+00 0.  1.
         11   -1    0    0    0    0 -0.00000000000E+00 -0.00000000000E+00 -0.12500000000E+03  0.12500000000E+03  0.00000000000E+00 0. -1.
         24    1    1    2    0    0 -0.99518981153E+01  0.32201209101E+02  0.89564646496E+02  0.12500000000E+03  0.80419002446E+02 0.  1.
        -24    1    1    2    0    0  0.99518981153E+01 -0.32201209101E+02 -0.89564646496E+02  0.12500000000E+03  0.80419002446E+02 0. -1.
</event>
<event>
 4    1  0.1586888E-001  0.1250000E+03  0.7546771E-02  0.1126479E+00
        -11   -1    0    0    0    0  0.00000000000E+00  0.00000000000E+00  0.12500000000E+03  0.12500000000E+03  0.00000000000E+00 0.  1.
         11   -1    0    0    0    0 -0.00000000000E+00 -0.00000000000E+00 -0.12500000000E+03  0.12500000000E+03  0.00000000000E+00 0. -1.
         24    1    1    2    0    0  0.50749701131E+01 -0.16242410501E+02  0.94171188933E+02  0.12500000000E+03  0.80419002446E+02 0.  1.
        -24    1    1    2    0    0 -0.50749701131E+01  0.16242410501E+02 -0.94171188933E+02  0.12500000000E+03  0.80419002446E+02 0. -1.
</event>
<event>
 4    1  0.1586888E-001  0.1250000E+03  0.7546771E-02  0.1126479E+00
        -11   -1    0    0    0    0  0.00000000000E+00  0.00000000000E+00  0.12500000000E+03  0.12500000000E+03  0.00000000000E+00 0.  1.
         11   -1    0    0    0    0 -0.00000000000E+00 -0.00000000000E+00 -0.12500000000E+03  0.12500000000E+03  0.00000000000E+00 0. -1.
         24    1    1    2    0    0 -0.21238139559E+02  0.91275268957E+02  0.19379131833E+02  0.12500000000E+03  0.80419002446E+02 0.  1.
        -24    1    1    2    0    0  0.21238139559E+02 -0.91275268957E+02 -0.19379131833E+02  0.12500000000E+03  0.80419002446E+02 0.  0.
</event>
<event>
 4    1  0.1586888E-001  0.1250000E+03  0.7546771E-02  0.1126479E+00
        -11   -1    0    0    0    0  0.00000000000E+00  0.00000000000E+00  0.12500000000E+03  0.12500000000E+03  0.00000000000E+00 0.  1.
         11   -1    0    0    0    0 -0.00000000000E+00 -0.00000000000E+00 -0.12500000000E+03  0.12500000000E+03  0.00000000000E+00 0. -1.
         24    1    1    2    0    0  0.19494416061E+02 -0.11810581950E+02  0.92942250576E+02  0.12500000000E+03  0.80419002446E+02 0.  1.
        -24    1    1    2    0    0 -0.19494416061E+02  0.11810581950E+02 -0.92942250576E+02  0.12500000000E+03  0.80419002446E+02 0. -1.
</event>
<event>
 4    1  0.1586888E-001  0.1250000E+03  0.7546771E-02  0.1126479E+00
        -11   -1    0    0    0    0  0.00000000000E+00  0.00000000000E+00  0.12500000000E+03  0.12500000000E+03  0.00000000000E+00 0.  1.
         11   -1    0    0    0    0 -0.00000000000E+00 -0.00000000000E+00 -0.12500000000E+03  0.12500000000E+03  0.00000000000E+00 0. -1.
         24    1    1    2    0    0  0.25913644524E+02  0.33091024798E+02  0.85972385979E+02  0.12500000000E+03  0.80419002446E+02 0.  1.
        -24    1    1    2    0    0 -0.25913644524E+02 -0.33091024798E+02 -0.85972385979E+02  0.12500000000E+03  0.80419002446E+02 0. -1.
</event>
<event>
 4    1  0.1586888E-001  0.1250000E+03  0.7546771E-02  0.1126479E+00
        -11   -1    0    0    0    0  0.00000000000E+00  0.00000000000E+00  0.12500000000E+03  0.12500000000E+03  0.00000000000E+00 0.  1.
         11   -1    0    0    0    0 -0.00000000000E+00 -0.00000000000E+00 -0.12500000000E+03  0.12500000000E+03  0.00000000000E+00 0. -1.
         24    1    1    2    0    0  0.91656349873E+02  0.26841495033E+02  0.60358692841E+01  0.12500000000E+03  0.80419002446E+02 0. -1.
        -24    1    1    2    0    0 -0.91656349873E+02 -0.26841495033E+02 -0.60358692841E+01  0.12500000000E+03  0.80419002446E+02 0.  1.
</event>
<event>
 4    1  0.1586888E-001  0.1250000E+03  0.7546771E-02  0.1126479E+00
        -11   -1    0    0    0    0  0.00000000000E+00  0.00000000000E+00  0.12500000000E+03  0.12500000000E+03  0.00000000000E+00 0.  1.
         11   -1    0    0    0    0 -0.00000000000E+00 -0.00000000000E+00 -0.12500000000E+03  0.12500000000E+03  0.00000000000E+00 0. -1.
         24    1    1    2    0    0 -0.58715032517E+02 -0.15863095720E+02  0.73882956061E+02  0.12500000000E+03  0.80419002446E+02 0.  1.
        -24    1    1    2    0    0  0.58715032517E+02  0.15863095720E+02 -0.73882956061E+02  0.12500000000E+03  0.80419002446E+02 0. -1.
</event>
<event>
 4    1  0.1586888E-001  0.1250000E+03  0.7546771E-02  0.1126479E+00
        -11   -1    0    0    0    0  0.00000000000E+00  0.00000000000E+00  0.12500000000E+03  0.12500000000E+03  0.00000000000E+00 0.  1.
         11   -1    0    0    0    0 -0.00000000000E+00 -0.00000000000E+00 -0.12500000000E+03  0.12500000000E+03  0.00000000000E+00 0. -1.
         24    1    1    2    0    0  0.63208159967E+02  0.66395822111E+02 -0.27461015375E+02  0.12500000000E+03  0.80419002446E+02 0. -1.
        -24    1    1    2    0    0 -0.63208159967E+02 -0.66395822111E+02  0.27461015375E+02  0.12500000000E+03  0.80419002446E+02 0.  1.
</event>
<event>
 4    1  0.1586888E-001  0.1250000E+03  0.7546771E-02  0.1126479E+00
        -11   -1    0    0    0    0  0.00000000000E+00  0.00000000000E+00  0.12500000000E+03  0.12500000000E+03  0.00000000000E+00 0.  1.
         11   -1    0    0    0    0 -0.00000000000E+00 -0.00000000000E+00 -0.12500000000E+03  0.12500000000E+03  0.00000000000E+00 0. -1.
         24    1    1    2    0    0 -0.10177258385E+02 -0.26314392459E+02  0.91442660760E+02  0.12500000000E+03  0.80419002446E+02 0.  1.
        -24    1    1    2    0    0  0.10177258385E+02  0.26314392459E+02 -0.91442660760E+02  0.12500000000E+03  0.80419002446E+02 0. -1.
</event>
<event>
 4    1  0.1586888E-001  0.1250000E+03  0.7546771E-02  0.1126479E+00
        -11   -1    0    0    0    0  0.00000000000E+00  0.00000000000E+00  0.12500000000E+03  0.12500000000E+03  0.00000000000E+00 0.  1.
         11   -1    0    0    0    0 -0.00000000000E+00 -0.00000000000E+00 -0.12500000000E+03  0.12500000000E+03  0.00000000000E+00 0. -1.
         24    1    1    2    0    0 -0.31329974259E+02 -0.35943458386E+02  0.82971588859E+02  0.12500000000E+03  0.80419002446E+02 0. -1.
        -24    1    1    2    0    0  0.31329974259E+02  0.35943458386E+02 -0.82971588859E+02  0.12500000000E+03  0.80419002446E+02 0.  0.
</event>
<event>
 4    1  0.1586888E-001  0.1250000E+03  0.7546771E-02  0.1126479E+00
        -11   -1    0    0    0    0  0.00000000000E+00  0.00000000000E+00  0.12500000000E+03  0.12500000000E+03  0.00000000000E+00 0.  1.
         11   -1    0    0    0    0 -0.00000000000E+00 -0.00000000000E+00 -0.12500000000E+03  0.12500000000E+03  0.00000000000E+00 0. -1.
         24    1    1    2    0    0 -0.48993516170E+02  0.54842615022E+02  0.61234851159E+02  0.12500000000E+03  0.80419002446E+02 0.  1.
        -24    1    1    2    0    0  0.48993516170E+02 -0.54842615022E+02 -0.61234851159E+02  0.12500000000E+03  0.80419002446E+02 0. -1.
</event>
<event>
 4    1  0.1586888E-001  0.1250000E+03  0.7546771E-02  0.1126479E+00
        -11   -1    0    0    0    0  0.00000000000E+00  0.00000000000E+00  0.12500000000E+03  0.12500000000E+03  0.00000000000E+00 0.  1.
         11   -1    0    0    0    0 -0.00000000000E+00 -0.00000000000E+00 -0.12500000000E+03  0.12500000000E+03  0.00000000000E+00 0. -1.
         24    1    1    2    0    0  0.28737612828E+02  0.48996908226E+02  0.77014522259E+02  0.12500000000E+03  0.80419002446E+02 0. -1.
        -24    1    1    2    0    0 -0.28737612828E+02 -0.48996908226E+02 -0.77014522259E+02  0.12500000000E+03  0.80419002446E+02 0.  0.
</event>
<event>
 4    1  0.1586888E-001  0.1250000E+03  0.7546771E-02  0.1126479E+00
        -11   -1    0    0    0    0  0.00000000000E+00  0.00000000000E+00  0.12500000000E+03  0.12500000000E+03  0.00000000000E+00 0.  1.
         11   -1    0    0    0    0 -0.00000000000E+00 -0.00000000000E+00 -0.12500000000E+03  0.12500000000E+03  0.00000000000E+00 0. -1.
         24    1    1    2    0    0  0.73816843268E+01 -0.63559025054E+02  0.71158591303E+02  0.12500000000E+03  0.80419002446E+02 0.  1.
        -24    1    1    2    0    0 -0.73816843268E+01  0.63559025054E+02 -0.71158591303E+02  0.12500000000E+03  0.80419002446E+02 0. -1.
</event>
<event>
 4    1  0.1586888E-001  0.1250000E+03  0.7546771E-02  0.1126479E+00
        -11   -1    0    0    0    0  0.00000000000E+00  0.00000000000E+00  0.12500000000E+03  0.12500000000E+03  0.00000000000E+00 0.  1.
         11   -1    0    0    0    0 -0.00000000000E+00 -0.00000000000E+00 -0.12500000000E+03  0.12500000000E+03  0.00000000000E+00 0. -1.
         24    1    1    2    0    0  0.15600013226E+02  0.53256540787E+02  0.77962583952E+02  0.12500000000E+03  0.80419002446E+02 0.  1.
        -24    1    1    2    0    0 -0.15600013226E+02 -0.53256540787E+02 -0.77962583952E+02  0.12500000000E+03  0.80419002446E+02 0. -1.
</event>
<event>
 4    1  0.1586888E-001  0.1250000E+03  0.7546771E-02  0.1126479E+00
        -11   -1    0    0    0    0  0.00000000000E+00  0.00000000000E+00  0.12500000000E+03  0.12500000000E+03  0.00000000000E+00 0.  1.
         11   -1    0    0    0    0 -0.00000000000E+00 -0.00000000000E+00 -0.12500000000E+03  0.12500000000E+03  0.00000000000E+00 0. -1.
         24    1    1    2    0    0  0.53556596602E+02  0.18025389523E+02  0.77230566090E+02  0.12500000000E+03  0.80419002446E+02 0.  1.
        -24    1    1    2    0    0 -0.53556596602E+02 -0.18025389523E+02 -0.77230566090E+02  0.12500000000E+03  0.80419002446E+02 0. -1.
</event>
<event>
 4    1  0.1586888E-001  0.1250000E+03  0.7546771E-02  0.1126479E+00
        -11   -1    0    0    0    0  0.00000000000E+00  0.00000000000E+00  0.12500000000E+03  0.12500000000E+03  0.00000000000E+00 0.  1.
         11   -1    0    0    0    0 -0.00000000000E+00 -0.00000000000E+00 -0.12500000000E+03  0.12500000000E+03  0.00000000000E+00 0. -1.
         24    1    1    2    0    0 -0.35136789695E+02  0.68517264415E+02  0.56820546747E+02  0.12500000000E+03  0.80419002446E+02 0. -1.
        -24    1    1    2    0    0  0.35136789695E+02 -0.68517264415E+02 -0.56820546747E+02  0.12500000000E+03  0.80419002446E+02 0.  1.
</event>
<event>
 4    1  0.1586888E-001  0.1250000E+03  0.7546771E-02  0.1126479E+00
        -11   -1    0    0    0    0  0.00000000000E+00  0.00000000000E+00  0.12500000000E+03  0.12500000000E+03  0.00000000000E+00 0.  1.
         11   -1    0    0    0    0 -0.00000000000E+00 -0.00000000000E+00 -0.12500000000E+03  0.12500000000E+03  0.00000000000E+00 0. -1.
         24    1    1    2    0    0 -0.10400519796E+02 -0.38172951339E+02  0.87134602883E+02  0.12500000000E+03  0.80419002446E+02 0.  1.
        -24    1    1    2    0    0  0.10400519796E+02  0.38172951339E+02 -0.87134602883E+02  0.12500000000E+03  0.80419002446E+02 0. -1.
</event>
<event>
 4    1  0.1586888E-001  0.1250000E+03  0.7546771E-02  0.1126479E+00
        -11   -1    0    0    0    0  0.00000000000E+00  0.00000000000E+00  0.12500000000E+03  0.12500000000E+03  0.00000000000E+00 0.  1.
         11   -1    0    0    0    0 -0.00000000000E+00 -0.00000000000E+00 -0.12500000000E+03  0.12500000000E+03  0.00000000000E+00 0. -1.
         24    1    1    2    0    0 -0.27460578516E+02  0.21976121585E+02  0.88998599726E+02  0.12500000000E+03  0.80419002446E+02 0.  1.
        -24    1    1    2    0    0  0.27460578516E+02 -0.21976121585E+02 -0.88998599726E+02  0.12500000000E+03  0.80419002446E+02 0.  1.
</event>
<event>
 4    1  0.1586888E-001  0.1250000E+03  0.7546771E-02  0.1126479E+00
        -11   -1    0    0    0    0  0.00000000000E+00  0.00000000000E+00  0.12500000000E+03  0.12500000000E+03  0.00000000000E+00 0.  1.
         11   -1    0    0    0    0 -0.00000000000E+00 -0.00000000000E+00 -0.12500000000E+03  0.12500000000E+03  0.00000000000E+00 0. -1.
         24    1    1    2    0    0  0.20153349964E+02  0.10713560887E+02  0.92934633716E+02  0.12500000000E+03  0.80419002446E+02 0.  1.
        -24    1    1    2    0    0 -0.20153349964E+02 -0.10713560887E+02 -0.92934633716E+02  0.12500000000E+03  0.80419002446E+02 0. -1.
</event>
<event>
 4    1  0.1586888E-001  0.1250000E+03  0.7546771E-02  0.1126479E+00
        -11   -1    0    0    0    0  0.00000000000E+00  0.00000000000E+00  0.12500000000E+03  0.12500000000E+03  0.00000000000E+00 0.  1.
         11   -1    0    0    0    0 -0.00000000000E+00 -0.00000000000E+00 -0.12500000000E+03  0.12500000000E+03  0.00000000000E+00 0. -1.
         24    1    1    2    0    0 -0.19211847608E+02  0.43077385136E+02  0.83264805572E+02  0.12500000000E+03  0.80419002446E+02 0.  1.
        -24    1    1    2    0    0  0.19211847608E+02 -0.43077385136E+02 -0.83264805572E+02  0.12500000000E+03  0.80419002446E+02 0. -1.
</event>
<event>
 4    1  0.1586888E-001  0.1250000E+03  0.7546771E-02  0.1126479E+00
        -11   -1    0    0    0    0  0.00000000000E+00  0.00000000000E+00  0.12500000000E+03  0.12500000000E+03  0.00000000000E+00 0.  1.
         11   -1    0    0    0    0 -0.00000000000E+00 -0.00000000000E+00 -0.12500000000E+03  0.12500000000E+03  0.00000000000E+00 0. -1.
         24    1    1    2    0    0  0.20167227237E+02 -0.54155788586E+02  0.76277241389E+02  0.12500000000E+03  0.80419002446E+02 0.  1.
        -24    1    1    2    0    0 -0.20167227237E+02  0.54155788586E+02 -0.76277241389E+02  0.12500000000E+03  0.80419002446E+02 0. -1.
</event>
<event>
 4    1  0.1586888E-001  0.1250000E+03  0.7546771E-02  0.1126479E+00
        -11   -1    0    0    0    0  0.00000000000E+00  0.00000000000E+00  0.12500000000E+03  0.12500000000E+03  0.00000000000E+00 0.  1.
         11   -1    0    0    0    0 -0.00000000000E+00 -0.00000000000E+00 -0.12500000000E+03  0.12500000000E+03  0.00000000000E+00 0. -1.
         24    1    1    2    0    0 -0.53103063042E+02  0.69861440812E+02  0.38173653596E+02  0.12500000000E+03  0.80419002446E+02 0.  1.
        -24    1    1    2    0    0  0.53103063042E+02 -0.69861440812E+02 -0.38173653596E+02  0.12500000000E+03  0.80419002446E+02 0. -1.
</event>
<event>
 4    1  0.1586888E-001  0.1250000E+03  0.7546771E-02  0.1126479E+00
        -11   -1    0    0    0    0  0.00000000000E+00  0.00000000000E+00  0.12500000000E+03  0.12500000000E+03  0.00000000000E+00 0.  1.
         11   -1    0    0    0    0 -0.00000000000E+00 -0.00000000000E+00 -0.12500000000E+03  0.12500000000E+03  0.00000000000E+00 0. -1.
         24    1    1    2    0    0 -0.33192884357E+02 -0.69218403930E+00  0.89752645392E+02  0.12500000000E+03  0.80419002446E+02 0.  1.
        -24    1    1    2    0    0  0.33192884357E+02  0.69218403930E+00 -0.89752645392E+02  0.12500000000E+03  0.80419002446E+02 0. -1.
</event>
<event>
 4    1  0.1586888E-001  0.1250000E+03  0.7546771E-02  0.1126479E+00
        -11   -1    0    0    0    0  0.00000000000E+00  0.00000000000E+00  0.12500000000E+03  0.12500000000E+03  0.00000000000E+00 0.  1.
         11   -1    0    0    0    0 -0.00000000000E+00 -0.00000000000E+00 -0.12500000000E+03  0.12500000000E+03  0.00000000000E+00 0. -1.
         24    1    1    2    0    0  0.18217122245E+02  0.92143241086E+02  0.18317849900E+02  0.12500000000E+03  0.80419002446E+02 0.  1.
        -24    1    1    2    0    0 -0.18217122245E+02 -0.92143241086E+02 -0.18317849900E+02  0.12500000000E+03  0.80419002446E+02 0. -1.
</event>
<event>
 4    1  0.1586888E-001  0.1250000E+03  0.7546771E-02  0.1126479E+00
        -11   -1    0    0    0    0  0.00000000000E+00  0.00000000000E+00  0.12500000000E+03  0.12500000000E+03  0.00000000000E+00 0.  1.
         11   -1    0    0    0    0 -0.00000000000E+00 -0.00000000000E+00 -0.12500000000E+03  0.12500000000E+03  0.00000000000E+00 0. -1.
         24    1    1    2    0    0 -0.65281614568E+02 -0.69586048491E+02  0.73400749629E+01  0.12500000000E+03  0.80419002446E+02 0.  0.
        -24    1    1    2    0    0  0.65281614568E+02  0.69586048491E+02 -0.73400749629E+01  0.12500000000E+03  0.80419002446E+02 0. -1.
</event>
<event>
 4    1  0.1586888E-001  0.1250000E+03  0.7546771E-02  0.1126479E+00
        -11   -1    0    0    0    0  0.00000000000E+00  0.00000000000E+00  0.12500000000E+03  0.12500000000E+03  0.00000000000E+00 0.  1.
         11   -1    0    0    0    0 -0.00000000000E+00 -0.00000000000E+00 -0.12500000000E+03  0.12500000000E+03  0.00000000000E+00 0. -1.
         24    1    1    2    0    0 -0.84736635555E+01 -0.31624605418E+02  0.89921440178E+02  0.12500000000E+03  0.80419002446E+02 0.  1.
        -24    1    1    2    0    0  0.84736635555E+01  0.31624605418E+02 -0.89921440178E+02  0.12500000000E+03  0.80419002446E+02 0. -1.
</event>
<event>
 4    1  0.1586888E-001  0.1250000E+03  0.7546771E-02  0.1126479E+00
        -11   -1    0    0    0    0  0.00000000000E+00  0.00000000000E+00  0.12500000000E+03  0.12500000000E+03  0.00000000000E+00 0.  1.
         11   -1    0    0    0    0 -0.00000000000E+00 -0.00000000000E+00 -0.12500000000E+03  0.12500000000E+03  0.00000000000E+00 0. -1.
         24    1    1    2    0    0 -0.50363243324E+00 -0.79016584806E+01  0.95368203261E+02  0.12500000000E+03  0.80419002446E+02 0.  1.
        -24    1    1    2    0    0  0.50363243324E+00  0.79016584806E+01 -0.95368203261E+02  0.12500000000E+03  0.80419002446E+02 0.  0.
</event>
<event>
 4    1  0.1586888E-001  0.1250000E+03  0.7546771E-02  0.1126479E+00
        -11   -1    0    0    0    0  0.00000000000E+00  0.00000000000E+00  0.12500000000E+03  0.12500000000E+03  0.00000000000E+00 0.  1.
         11   -1    0    0    0    0 -0.00000000000E+00 -0.00000000000E+00 -0.12500000000E+03  0.12500000000E+03  0.00000000000E+00 0. -1.
         24    1    1    2    0    0 -0.28331581012E+02 -0.68494604582E+02  0.60527635887E+02  0.12500000000E+03  0.80419002446E+02 0.  1.
        -24    1    1    2    0    0  0.28331581012E+02  0.68494604582E+02 -0.60527635887E+02  0.12500000000E+03  0.80419002446E+02 0. -1.
</event>
<event>
 4    1  0.1586888E-001  0.1250000E+03  0.7546771E-02  0.1126479E+00
        -11   -1    0    0    0    0  0.00000000000E+00  0.00000000000E+00  0.12500000000E+03  0.12500000000E+03  0.00000000000E+00 0.  1.
         11   -1    0    0    0    0 -0.00000000000E+00 -0.00000000000E+00 -0.12500000000E+03  0.12500000000E+03  0.00000000000E+00 0. -1.
         24    1    1    2    0    0  0.12007937026E+02  0.56589248985E+02  0.76231557726E+02  0.12500000000E+03  0.80419002446E+02 0.  1.
        -24    1    1    2    0    0 -0.12007937026E+02 -0.56589248985E+02 -0.76231557726E+02  0.12500000000E+03  0.80419002446E+02 0. -1.
</event>
<event>
 4    1  0.1586888E-001  0.1250000E+03  0.7546771E-02  0.1126479E+00
        -11   -1    0    0    0    0  0.00000000000E+00  0.00000000000E+00  0.12500000000E+03  0.12500000000E+03  0.00000000000E+00 0.  1.
         11   -1    0    0    0    0 -0.00000000000E+00 -0.00000000000E+00 -0.12500000000E+03  0.12500000000E+03  0.00000000000E+00 0. -1.
         24    1    1    2    0    0 -0.43197346443E+02  0.17038228725E+02  0.83674799479E+02  0.12500000000E+03  0.80419002446E+02 0.  1.
        -24    1    1    2    0    0  0.43197346443E+02 -0.17038228725E+02 -0.83674799479E+02  0.12500000000E+03  0.80419002446E+02 0. -1.
</event>
<event>
 4    1  0.1586888E-001  0.1250000E+03  0.7546771E-02  0.1126479E+00
        -11   -1    0    0    0    0  0.00000000000E+00  0.00000000000E+00  0.12500000000E+03  0.12500000000E+03  0.00000000000E+00 0.  1.
         11   -1    0    0    0    0 -0.00000000000E+00 -0.00000000000E+00 -0.12500000000E+03  0.12500000000E+03  0.00000000000E+00 0. -1.
         24    1    1    2    0    0 -0.89796570426E+02  0.29018834258E+02 -0.15882923019E+02  0.12500000000E+03  0.80419002446E+02 0.  0.
        -24    1    1    2    0    0  0.89796570426E+02 -0.29018834258E+02  0.15882923019E+02  0.12500000000E+03  0.80419002446E+02 0. -1.
</event>
<event>
 4    1  0.1586888E-001  0.1250000E+03  0.7546771E-02  0.1126479E+00
        -11   -1    0    0    0    0  0.00000000000E+00  0.00000000000E+00  0.12500000000E+03  0.12500000000E+03  0.00000000000E+00 0.  1.
         11   -1    0    0    0    0 -0.00000000000E+00 -0.00000000000E+00 -0.12500000000E+03  0.12500000000E+03  0.00000000000E+00 0. -1.
         24    1    1    2    0    0 -0.25481359501E+02  0.13016462059E+02  0.91318432307E+02  0.12500000000E+03  0.80419002446E+02 0.  1.
        -24    1    1    2    0    0  0.25481359501E+02 -0.13016462059E+02 -0.91318432307E+02  0.12500000000E+03  0.80419002446E+02 0. -1.
</event>
<event>
 4    1  0.1586888E-001  0.1250000E+03  0.7546771E-02  0.1126479E+00
        -11   -1    0    0    0    0  0.00000000000E+00  0.00000000000E+00  0.12500000000E+03  0.12500000000E+03  0.00000000000E+00 0.  1.
         11   -1    0    0    0    0 -0.00000000000E+00 -0.00000000000E+00 -0.12500000000E+03  0.12500000000E+03  0.00000000000E+00 0. -1.
         24    1    1    2    0    0 -0.12071171610E+02 -0.16636390875E+02  0.93462834112E+02  0.12500000000E+03  0.80419002446E+02 0.  1.
        -24    1    1    2    0    0  0.12071171610E+02  0.16636390875E+02 -0.93462834112E+02  0.12500000000E+03  0.80419002446E+02 0. -1.
</event>
<event>
 4    1  0.1586888E-001  0.1250000E+03  0.7546771E-02  0.1126479E+00
        -11   -1    0    0    0    0  0.00000000000E+00  0.00000000000E+00  0.12500000000E+03  0.12500000000E+03  0.00000000000E+00 0.  1.
         11   -1    0    0    0    0 -0.00000000000E+00 -0.00000000000E+00 -0.12500000000E+03  0.12500000000E+03  0.00000000000E+00 0. -1.
         24    1    1    2    0    0  0.37700234648E+02  0.55177035021E+02  0.68497964637E+02  0.12500000000E+03  0.80419002446E+02 0.  1.
        -24    1    1    2    0    0 -0.37700234648E+02 -0.55177035021E+02 -0.68497964637E+02  0.12500000000E+03  0.80419002446E+02 0. -1.
</event>
<event>
 4    1  0.1586888E-001  0.1250000E+03  0.7546771E-02  0.1126479E+00
        -11   -1    0    0    0    0  0.00000000000E+00  0.00000000000E+00  0.12500000000E+03  0.12500000000E+03  0.00000000000E+00 0.  1.
         11   -1    0    0    0    0 -0.00000000000E+00 -0.00000000000E+00 -0.12500000000E+03  0.12500000000E+03  0.00000000000E+00 0. -1.
         24    1    1    2    0    0 -0.32184372047E+02  0.89772992163E+02 -0.79221284823E+01  0.12500000000E+03  0.80419002446E+02 0.  0.
        -24    1    1    2    0    0  0.32184372047E+02 -0.89772992163E+02  0.79221284823E+01  0.12500000000E+03  0.80419002446E+02 0.  0.
</event>
<event>
 4    1  0.1586888E-001  0.1250000E+03  0.7546771E-02  0.1126479E+00
        -11   -1    0    0    0    0  0.00000000000E+00  0.00000000000E+00  0.12500000000E+03  0.12500000000E+03  0.00000000000E+00 0.  1.
         11   -1    0    0    0    0 -0.00000000000E+00 -0.00000000000E+00 -0.12500000000E+03  0.12500000000E+03  0.00000000000E+00 0. -1.
         24    1    1    2    0    0  0.19112693437E+00 -0.23853411371E+02  0.92675575434E+02  0.12500000000E+03  0.80419002446E+02 0.  0.
        -24    1    1    2    0    0 -0.19112693437E+00  0.23853411371E+02 -0.92675575434E+02  0.12500000000E+03  0.80419002446E+02 0. -1.
</event>
<event>
 4    1  0.1586888E-001  0.1250000E+03  0.7546771E-02  0.1126479E+00
        -11   -1    0    0    0    0  0.00000000000E+00  0.00000000000E+00  0.12500000000E+03  0.12500000000E+03  0.00000000000E+00 0.  1.
         11   -1    0    0    0    0 -0.00000000000E+00 -0.00000000000E+00 -0.12500000000E+03  0.12500000000E+03  0.00000000000E+00 0. -1.
         24    1    1    2    0    0  0.47694493770E+01  0.17690870265E+02  0.93925872408E+02  0.12500000000E+03  0.80419002446E+02 0. -1.
        -24    1    1    2    0    0 -0.47694493770E+01 -0.17690870265E+02 -0.93925872408E+02  0.12500000000E+03  0.80419002446E+02 0.  0.
</event>
<event>
 4    1  0.1586888E-001  0.1250000E+03  0.7546771E-02  0.1126479E+00
        -11   -1    0    0    0    0  0.00000000000E+00  0.00000000000E+00  0.12500000000E+03  0.12500000000E+03  0.00000000000E+00 0.  1.
         11   -1    0    0    0    0 -0.00000000000E+00 -0.00000000000E+00 -0.12500000000E+03  0.12500000000E+03  0.00000000000E+00 0. -1.
         24    1    1    2    0    0  0.24208433823E+02  0.60850001165E+02  0.69778314223E+02  0.12500000000E+03  0.80419002446E+02 0.  1.
        -24    1    1    2    0    0 -0.24208433823E+02 -0.60850001165E+02 -0.69778314223E+02  0.12500000000E+03  0.80419002446E+02 0. -1.
</event>
<event>
 4    1  0.1586888E-001  0.1250000E+03  0.7546771E-02  0.1126479E+00
        -11   -1    0    0    0    0  0.00000000000E+00  0.00000000000E+00  0.12500000000E+03  0.12500000000E+03  0.00000000000E+00 0.  1.
         11   -1    0    0    0    0 -0.00000000000E+00 -0.00000000000E+00 -0.12500000000E+03  0.12500000000E+03  0.00000000000E+00 0. -1.
         24    1    1    2    0    0  0.80616687753E+02 -0.89088679439E+01  0.50787456850E+02  0.12500000000E+03  0.80419002446E+02 0.  1.
        -24    1    1    2    0    0 -0.80616687753E+02  0.89088679439E+01 -0.50787456850E+02  0.12500000000E+03  0.80419002446E+02 0. -1.
</event>
<event>
 4    1  0.1586888E-001  0.1250000E+03  0.7546771E-02  0.1126479E+00
        -11   -1    0    0    0    0  0.00000000000E+00  0.00000000000E+00  0.12500000000E+03  0.12500000000E+03  0.00000000000E+00 0.  1.
         11   -1    0    0    0    0 -0.00000000000E+00 -0.00000000000E+00 -0.12500000000E+03  0.12500000000E+03  0.00000000000E+00 0. -1.
         24    1    1    2    0    0  0.91840126643E+01  0.60560323586E+02  0.73524724849E+02  0.12500000000E+03  0.80419002446E+02 0. -1.
        -24    1    1    2    0    0 -0.91840126643E+01 -0.60560323586E+02 -0.73524724849E+02  0.12500000000E+03  0.80419002446E+02 0.  0.
</event>
<event>
 4    1  0.1586888E-001  0.1250000E+03  0.7546771E-02  0.1126479E+00
        -11   -1    0    0    0    0  0.00000000000E+00  0.00000000000E+00  0.12500000000E+03  0.12500000000E+03  0.00000000000E+00 0.  1.
         11   -1    0    0    0    0 -0.00000000000E+00 -0.00000000000E+00 -0.12500000000E+03  0.12500000000E+03  0.00000000000E+00 0. -1.
         24    1    1    2    0    0  0.58615950021E+02 -0.60927534251E+02  0.44830681668E+02  0.12500000000E+03  0.80419002446E+02 0.  0.
        -24    1    1    2    0    0 -0.58615950021E+02  0.60927534251E+02 -0.44830681668E+02  0.12500000000E+03  0.80419002446E+02 0. -1.
</event>
<event>
 4    1  0.1586888E-001  0.1250000E+03  0.7546771E-02  0.1126479E+00
        -11   -1    0    0    0    0  0.00000000000E+00  0.00000000000E+00  0.12500000000E+03  0.12500000000E+03  0.00000000000E+00 0.  1.
         11   -1    0    0    0    0 -0.00000000000E+00 -0.00000000000E+00 -0.12500000000E+03  0.12500000000E+03  0.00000000000E+00 0. -1.
         24    1    1    2    0    0 -0.55181771437E+02  0.28417720894E+02  0.72836730335E+02  0.12500000000E+03  0.80419002446E+02 0.  1.
        -24    1    1    2    0    0  0.55181771437E+02 -0.28417720894E+02 -0.72836730335E+02  0.12500000000E+03  0.80419002446E+02 0. -1.
</event>
<event>
 4    1  0.1586888E-001  0.1250000E+03  0.7546771E-02  0.1126479E+00
        -11   -1    0    0    0    0  0.00000000000E+00  0.00000000000E+00  0.12500000000E+03  0.12500000000E+03  0.00000000000E+00 0.  1.
         11   -1    0    0    0    0 -0.00000000000E+00 -0.00000000000E+00 -0.12500000000E+03  0.12500000000E+03  0.00000000000E+00 0. -1.
         24    1    1    2    0    0  0.89104520523E+02  0.76438812246E+00  0.34893898875E+02  0.12500000000E+03  0.80419002446E+02 0.  0.
        -24    1    1    2    0    0 -0.89104520523E+02 -0.76438812246E+00 -0.34893898875E+02  0.12500000000E+03  0.80419002446E+02 0. -1.
</event>
<event>
 4    1  0.1586888E-001  0.1250000E+03  0.7546771E-02  0.1126479E+00
        -11   -1    0    0    0    0  0.00000000000E+00  0.00000000000E+00  0.12500000000E+03  0.12500000000E+03  0.00000000000E+00 0.  1.
         11   -1    0    0    0    0 -0.00000000000E+00 -0.00000000000E+00 -0.12500000000E+03  0.12500000000E+03  0.00000000000E+00 0. -1.
         24    1    1    2    0    0  0.99790272925E+01  0.70399003447E+02  0.64048289388E+02  0.12500000000E+03  0.80419002446E+02 0.  1.
        -24    1    1    2    0    0 -0.99790272925E+01 -0.70399003447E+02 -0.64048289388E+02  0.12500000000E+03  0.80419002446E+02 0. -1.
</event>
<event>
 4    1  0.1586888E-001  0.1250000E+03  0.7546771E-02  0.1126479E+00
        -11   -1    0    0    0    0  0.00000000000E+00  0.00000000000E+00  0.12500000000E+03  0.12500000000E+03  0.00000000000E+00 0.  1.
         11   -1    0    0    0    0 -0.00000000000E+00 -0.00000000000E+00 -0.12500000000E+03  0.12500000000E+03  0.00000000000E+00 0. -1.
         24    1    1    2    0    0 -0.17392574105E+02 -0.93407444178E+02  0.11416294662E+02  0.12500000000E+03  0.80419002446E+02 0.  1.
        -24    1    1    2    0    0  0.17392574105E+02  0.93407444178E+02 -0.11416294662E+02  0.12500000000E+03  0.80419002446E+02 0. -1.
</event>
<event>
 4    1  0.1586888E-001  0.1250000E+03  0.7546771E-02  0.1126479E+00
        -11   -1    0    0    0    0  0.00000000000E+00  0.00000000000E+00  0.12500000000E+03  0.12500000000E+03  0.00000000000E+00 0.  1.
         11   -1    0    0    0    0 -0.00000000000E+00 -0.00000000000E+00 -0.12500000000E+03  0.12500000000E+03  0.00000000000E+00 0. -1.
         24    1    1    2    0    0  0.40575769050E+02 -0.20934874322E+02  0.84101855204E+02  0.12500000000E+03  0.80419002446E+02 0.  1.
        -24    1    1    2    0    0 -0.40575769050E+02  0.20934874322E+02 -0.84101855204E+02  0.12500000000E+03  0.80419002446E+02 0.  1.
</event>
<event>
 4    1  0.1586888E-001  0.1250000E+03  0.7546771E-02  0.1126479E+00
        -11   -1    0    0    0    0  0.00000000000E+00  0.00000000000E+00  0.12500000000E+03  0.12500000000E+03  0.00000000000E+00 0.  1.
         11   -1    0    0    0    0 -0.00000000000E+00 -0.00000000000E+00 -0.12500000000E+03  0.12500000000E+03  0.00000000000E+00 0. -1.
         24    1    1    2    0    0  0.15397697370E+02  0.30521287250E+02  0.89382022722E+02  0.12500000000E+03  0.80419002446E+02 0.  1.
        -24    1    1    2    0    0 -0.15397697370E+02 -0.30521287250E+02 -0.89382022722E+02  0.12500000000E+03  0.80419002446E+02 0. -1.
</event>
<event>
 4    1  0.1586888E-001  0.1250000E+03  0.7546771E-02  0.1126479E+00
        -11   -1    0    0    0    0  0.00000000000E+00  0.00000000000E+00  0.12500000000E+03  0.12500000000E+03  0.00000000000E+00 0.  1.
         11   -1    0    0    0    0 -0.00000000000E+00 -0.00000000000E+00 -0.12500000000E+03  0.12500000000E+03  0.00000000000E+00 0. -1.
         24    1    1    2    0    0 -0.46905484182E+02  0.82850114898E+02  0.96704736517E+01  0.12500000000E+03  0.80419002446E+02 0.  1.
        -24    1    1    2    0    0  0.46905484182E+02 -0.82850114898E+02 -0.96704736517E+01  0.12500000000E+03  0.80419002446E+02 0. -1.
</event>
<event>
 4    1  0.1586888E-001  0.1250000E+03  0.7546771E-02  0.1126479E+00
        -11   -1    0    0    0    0  0.00000000000E+00  0.00000000000E+00  0.12500000000E+03  0.12500000000E+03  0.00000000000E+00 0.  1.
         11   -1    0    0    0    0 -0.00000000000E+00 -0.00000000000E+00 -0.12500000000E+03  0.12500000000E+03  0.00000000000E+00 0. -1.
         24    1    1    2    0    0  0.14233171849E+02  0.65662886870E+02  0.68143863646E+02  0.12500000000E+03  0.80419002446E+02 0.  1.
        -24    1    1    2    0    0 -0.14233171849E+02 -0.65662886870E+02 -0.68143863646E+02  0.12500000000E+03  0.80419002446E+02 0. -1.
</event>
<event>
 4    1  0.1586888E-001  0.1250000E+03  0.7546771E-02  0.1126479E+00
        -11   -1    0    0    0    0  0.00000000000E+00  0.00000000000E+00  0.12500000000E+03  0.12500000000E+03  0.00000000000E+00 0.  1.
         11   -1    0    0    0    0 -0.00000000000E+00 -0.00000000000E+00 -0.12500000000E+03  0.12500000000E+03  0.00000000000E+00 0. -1.
         24    1    1    2    0    0  0.67739488322E+02 -0.26776351059E+02  0.62065874614E+02  0.12500000000E+03  0.80419002446E+02 0.  0.
        -24    1    1    2    0    0 -0.67739488322E+02  0.26776351059E+02 -0.62065874614E+02  0.12500000000E+03  0.80419002446E+02 0.  1.
</event>
<event>
 4    1  0.1586888E-001  0.1250000E+03  0.7546771E-02  0.1126479E+00
        -11   -1    0    0    0    0  0.00000000000E+00  0.00000000000E+00  0.12500000000E+03  0.12500000000E+03  0.00000000000E+00 0.  1.
         11   -1    0    0    0    0 -0.00000000000E+00 -0.00000000000E+00 -0.12500000000E+03  0.12500000000E+03  0.00000000000E+00 0. -1.
         24    1    1    2    0    0  0.24734039244E+02 -0.10169467616E+02  0.91883585459E+02  0.12500000000E+03  0.80419002446E+02 0.  1.
        -24    1    1    2    0    0 -0.24734039244E+02  0.10169467616E+02 -0.91883585459E+02  0.12500000000E+03  0.80419002446E+02 0. -1.
</event>
<event>
 4    1  0.1586888E-001  0.1250000E+03  0.7546771E-02  0.1126479E+00
        -11   -1    0    0    0    0  0.00000000000E+00  0.00000000000E+00  0.12500000000E+03  0.12500000000E+03  0.00000000000E+00 0.  1.
         11   -1    0    0    0    0 -0.00000000000E+00 -0.00000000000E+00 -0.12500000000E+03  0.12500000000E+03  0.00000000000E+00 0. -1.
         24    1    1    2    0    0 -0.40458166668E+02  0.21869242650E+02  0.83920539926E+02  0.12500000000E+03  0.80419002446E+02 0.  1.
        -24    1    1    2    0    0  0.40458166668E+02 -0.21869242650E+02 -0.83920539926E+02  0.12500000000E+03  0.80419002446E+02 0. -1.
</event>
<event>
 4    1  0.1586888E-001  0.1250000E+03  0.7546771E-02  0.1126479E+00
        -11   -1    0    0    0    0  0.00000000000E+00  0.00000000000E+00  0.12500000000E+03  0.12500000000E+03  0.00000000000E+00 0.  1.
         11   -1    0    0    0    0 -0.00000000000E+00 -0.00000000000E+00 -0.12500000000E+03  0.12500000000E+03  0.00000000000E+00 0. -1.
         24    1    1    2    0    0 -0.16321771540E+02  0.67754532827E+02  0.65579776614E+02  0.12500000000E+03  0.80419002446E+02 0.  1.
        -24    1    1    2    0    0  0.16321771540E+02 -0.67754532827E+02 -0.65579776614E+02  0.12500000000E+03  0.80419002446E+02 0.  0.
</event>
<event>
 4    1  0.1586888E-001  0.1250000E+03  0.7546771E-02  0.1126479E+00
        -11   -1    0    0    0    0  0.00000000000E+00  0.00000000000E+00  0.12500000000E+03  0.12500000000E+03  0.00000000000E+00 0.  1.
         11   -1    0    0    0    0 -0.00000000000E+00 -0.00000000000E+00 -0.12500000000E+03  0.12500000000E+03  0.00000000000E+00 0. -1.
         24    1    1    2    0    0  0.28800672142E+02  0.41391511599E+02  0.81332945953E+02  0.12500000000E+03  0.80419002446E+02 0.  1.
        -24    1    1    2    0    0 -0.28800672142E+02 -0.41391511599E+02 -0.81332945953E+02  0.12500000000E+03  0.80419002446E+02 0. -1.
</event>
<event>
 4    1  0.1586888E-001  0.1250000E+03  0.7546771E-02  0.1126479E+00
        -11   -1    0    0    0    0  0.00000000000E+00  0.00000000000E+00  0.12500000000E+03  0.12500000000E+03  0.00000000000E+00 0.  1.
         11   -1    0    0    0    0 -0.00000000000E+00 -0.00000000000E+00 -0.12500000000E+03  0.12500000000E+03  0.00000000000E+00 0. -1.
         24    1    1    2    0    0 -0.48371821654E+02  0.15266216984E+02  0.81147356917E+02  0.12500000000E+03  0.80419002446E+02 0.  1.
        -24    1    1    2    0    0  0.48371821654E+02 -0.15266216984E+02 -0.81147356917E+02  0.12500000000E+03  0.80419002446E+02 0. -1.
</event>
<event>
 4    1  0.1586888E-001  0.1250000E+03  0.7546771E-02  0.1126479E+00
        -11   -1    0    0    0    0  0.00000000000E+00  0.00000000000E+00  0.12500000000E+03  0.12500000000E+03  0.00000000000E+00 0.  1.
         11   -1    0    0    0    0 -0.00000000000E+00 -0.00000000000E+00 -0.12500000000E+03  0.12500000000E+03  0.00000000000E+00 0. -1.
         24    1    1    2    0    0 -0.68680133305E+02  0.40517172108E+02  0.52907297221E+02  0.12500000000E+03  0.80419002446E+02 0.  1.
        -24    1    1    2    0    0  0.68680133305E+02 -0.40517172108E+02 -0.52907297221E+02  0.12500000000E+03  0.80419002446E+02 0. -1.
</event>
<event>
 4    1  0.1586888E-001  0.1250000E+03  0.7546771E-02  0.1126479E+00
        -11   -1    0    0    0    0  0.00000000000E+00  0.00000000000E+00  0.12500000000E+03  0.12500000000E+03  0.00000000000E+00 0.  1.
         11   -1    0    0    0    0 -0.00000000000E+00 -0.00000000000E+00 -0.12500000000E+03  0.12500000000E+03  0.00000000000E+00 0. -1.
         24    1    1    2    0    0  0.49468460695E+02  0.10517799780E+02  0.81240576868E+02  0.12500000000E+03  0.80419002446E+02 0.  1.
        -24    1    1    2    0    0 -0.49468460695E+02 -0.10517799780E+02 -0.81240576868E+02  0.12500000000E+03  0.80419002446E+02 0. -1.
</event>
<event>
 4    1  0.1586888E-001  0.1250000E+03  0.7546771E-02  0.1126479E+00
        -11   -1    0    0    0    0  0.00000000000E+00  0.00000000000E+00  0.12500000000E+03  0.12500000000E+03  0.00000000000E+00 0.  1.
         11   -1    0    0    0    0 -0.00000000000E+00 -0.00000000000E+00 -0.12500000000E+03  0.12500000000E+03  0.00000000000E+00 0. -1.
         24    1    1    2    0    0 -0.86168816990E+02  0.11130931925E+02 -0.40110115664E+02  0.12500000000E+03  0.80419002446E+02 0.  1.
        -24    1    1    2    0    0  0.86168816990E+02 -0.11130931925E+02  0.40110115664E+02  0.12500000000E+03  0.80419002446E+02 0.  0.
</event>
<event>
 4    1  0.1586888E-001  0.1250000E+03  0.7546771E-02  0.1126479E+00
        -11   -1    0    0    0    0  0.00000000000E+00  0.00000000000E+00  0.12500000000E+03  0.12500000000E+03  0.00000000000E+00 0.  1.
         11   -1    0    0    0    0 -0.00000000000E+00 -0.00000000000E+00 -0.12500000000E+03  0.12500000000E+03  0.00000000000E+00 0. -1.
         24    1    1    2    0    0 -0.55451261120E+02 -0.20601311510E+01  0.77966002497E+02  0.12500000000E+03  0.80419002446E+02 0.  1.
        -24    1    1    2    0    0  0.55451261120E+02  0.20601311510E+01 -0.77966002497E+02  0.12500000000E+03  0.80419002446E+02 0. -1.
</event>
<event>
 4    1  0.1586888E-001  0.1250000E+03  0.7546771E-02  0.1126479E+00
        -11   -1    0    0    0    0  0.00000000000E+00  0.00000000000E+00  0.12500000000E+03  0.12500000000E+03  0.00000000000E+00 0.  1.
         11   -1    0    0    0    0 -0.00000000000E+00 -0.00000000000E+00 -0.12500000000E+03  0.12500000000E+03  0.00000000000E+00 0. -1.
         24    1    1    2    0    0  0.19844219260E+02 -0.37202530417E+02  0.85906709506E+02  0.12500000000E+03  0.80419002446E+02 0.  1.
        -24    1    1    2    0    0 -0.19844219260E+02  0.37202530417E+02 -0.85906709506E+02  0.12500000000E+03  0.80419002446E+02 0. -1.
</event>
<event>
 4    1  0.1586888E-001  0.1250000E+03  0.7546771E-02  0.1126479E+00
        -11   -1    0    0    0    0  0.00000000000E+00  0.00000000000E+00  0.12500000000E+03  0.12500000000E+03  0.00000000000E+00 0.  1.
         11   -1    0    0    0    0 -0.00000000000E+00 -0.00000000000E+00 -0.12500000000E+03  0.12500000000E+03  0.00000000000E+00 0. -1.
         24    1    1    2    0    0 -0.34614340710E+02  0.33152406808E+02  0.82828433437E+02  0.12500000000E+03  0.80419002446E+02 0.  1.
        -24    1    1    2    0    0  0.34614340710E+02 -0.33152406808E+02 -0.82828433437E+02  0.12500000000E+03  0.80419002446E+02 0. -1.
</event>
<event>
 4    1  0.1586888E-001  0.1250000E+03  0.7546771E-02  0.1126479E+00
        -11   -1    0    0    0    0  0.00000000000E+00  0.00000000000E+00  0.12500000000E+03  0.12500000000E+03  0.00000000000E+00 0.  1.
         11   -1    0    0    0    0 -0.00000000000E+00 -0.00000000000E+00 -0.12500000000E+03  0.12500000000E+03  0.00000000000E+00 0. -1.
         24    1    1    2    0    0  0.82998566777E+02 -0.35458719199E+02 -0.31807250610E+02  0.12500000000E+03  0.80419002446E+02 0.  0.
        -24    1    1    2    0    0 -0.82998566777E+02  0.35458719199E+02  0.31807250610E+02  0.12500000000E+03  0.80419002446E+02 0.  0.
</event>
<event>
 4    1  0.1586888E-001  0.1250000E+03  0.7546771E-02  0.1126479E+00
        -11   -1    0    0    0    0  0.00000000000E+00  0.00000000000E+00  0.12500000000E+03  0.12500000000E+03  0.00000000000E+00 0.  1.
         11   -1    0    0    0    0 -0.00000000000E+00 -0.00000000000E+00 -0.12500000000E+03  0.12500000000E+03  0.00000000000E+00 0. -1.
         24    1    1    2    0    0 -0.85591836692E+02  0.20019817945E+02  0.37828936370E+02  0.12500000000E+03  0.80419002446E+02 0.  1.
        -24    1    1    2    0    0  0.85591836692E+02 -0.20019817945E+02 -0.37828936370E+02  0.12500000000E+03  0.80419002446E+02 0. -1.
</event>
<event>
 4    1  0.1586888E-001  0.1250000E+03  0.7546771E-02  0.1126479E+00
        -11   -1    0    0    0    0  0.00000000000E+00  0.00000000000E+00  0.12500000000E+03  0.12500000000E+03  0.00000000000E+00 0.  1.
         11   -1    0    0    0    0 -0.00000000000E+00 -0.00000000000E+00 -0.12500000000E+03  0.12500000000E+03  0.00000000000E+00 0. -1.
         24    1    1    2    0    0 -0.47657020363E+02 -0.18375830457E+02  0.80925405843E+02  0.12500000000E+03  0.80419002446E+02 0.  1.
        -24    1    1    2    0    0  0.47657020363E+02  0.18375830457E+02 -0.80925405843E+02  0.12500000000E+03  0.80419002446E+02 0. -1.
</event>
<event>
 4    1  0.1586888E-001  0.1250000E+03  0.7546771E-02  0.1126479E+00
        -11   -1    0    0    0    0  0.00000000000E+00  0.00000000000E+00  0.12500000000E+03  0.12500000000E+03  0.00000000000E+00 0.  1.
         11   -1    0    0    0    0 -0.00000000000E+00 -0.00000000000E+00 -0.12500000000E+03  0.12500000000E+03  0.00000000000E+00 0. -1.
         24    1    1    2    0    0 -0.49675872799E+02 -0.26097741394E+02  0.77517737335E+02  0.12500000000E+03  0.80419002446E+02 0. -1.
        -24    1    1    2    0    0  0.49675872799E+02  0.26097741394E+02 -0.77517737335E+02  0.12500000000E+03  0.80419002446E+02 0. -1.
</event>
<event>
 4    1  0.1586888E-001  0.1250000E+03  0.7546771E-02  0.1126479E+00
        -11   -1    0    0    0    0  0.00000000000E+00  0.00000000000E+00  0.12500000000E+03  0.12500000000E+03  0.00000000000E+00 0.  1.
         11   -1    0    0    0    0 -0.00000000000E+00 -0.00000000000E+00 -0.12500000000E+03  0.12500000000E+03  0.00000000000E+00 0. -1.
         24    1    1    2    0    0 -0.60841375118E+01  0.52298031771E+01  0.95359406852E+02  0.12500000000E+03  0.80419002446E+02 0.  1.
        -24    1    1    2    0    0  0.60841375118E+01 -0.52298031771E+01 -0.95359406852E+02  0.12500000000E+03  0.80419002446E+02 0.  0.
</event>
<event>
 4    1  0.1586888E-001  0.1250000E+03  0.7546771E-02  0.1126479E+00
        -11   -1    0    0    0    0  0.00000000000E+00  0.00000000000E+00  0.12500000000E+03  0.12500000000E+03  0.00000000000E+00 0. -1.
         11   -1    0    0    0    0 -0.00000000000E+00 -0.00000000000E+00 -0.12500000000E+03  0.12500000000E+03  0.00000000000E+00 0.  1.
         24    1    1    2    0    0  0.72146507819E+02 -0.58134220025E+02  0.23939045872E+02  0.12500000000E+03  0.80419002446E+02 0.  0.
        -24    1    1    2    0    0 -0.72146507819E+02  0.58134220025E+02 -0.23939045872E+02  0.12500000000E+03  0.80419002446E+02 0.  0.
</event>
<event>
 4    1  0.1586888E-001  0.1250000E+03  0.7546771E-02  0.1126479E+00
        -11   -1    0    0    0    0  0.00000000000E+00  0.00000000000E+00  0.12500000000E+03  0.12500000000E+03  0.00000000000E+00 0.  1.
         11   -1    0    0    0    0 -0.00000000000E+00 -0.00000000000E+00 -0.12500000000E+03  0.12500000000E+03  0.00000000000E+00 0. -1.
         24    1    1    2    0    0 -0.71523507641E+02  0.62413966580E+02 -0.12110684381E+02  0.12500000000E+03  0.80419002446E+02 0.  0.
        -24    1    1    2    0    0  0.71523507641E+02 -0.62413966580E+02  0.12110684381E+02  0.12500000000E+03  0.80419002446E+02 0. -1.
</event>
<event>
 4    1  0.1586888E-001  0.1250000E+03  0.7546771E-02  0.1126479E+00
        -11   -1    0    0    0    0  0.00000000000E+00  0.00000000000E+00  0.12500000000E+03  0.12500000000E+03  0.00000000000E+00 0.  1.
         11   -1    0    0    0    0 -0.00000000000E+00 -0.00000000000E+00 -0.12500000000E+03  0.12500000000E+03  0.00000000000E+00 0. -1.
         24    1    1    2    0    0 -0.28194220340E+02  0.13744512794E+02  0.90409946096E+02  0.12500000000E+03  0.80419002446E+02 0.  1.
        -24    1    1    2    0    0  0.28194220340E+02 -0.13744512794E+02 -0.90409946096E+02  0.12500000000E+03  0.80419002446E+02 0. -1.
</event>
<event>
 4    1  0.1586888E-001  0.1250000E+03  0.7546771E-02  0.1126479E+00
        -11   -1    0    0    0    0  0.00000000000E+00  0.00000000000E+00  0.12500000000E+03  0.12500000000E+03  0.00000000000E+00 0.  1.
         11   -1    0    0    0    0 -0.00000000000E+00 -0.00000000000E+00 -0.12500000000E+03  0.12500000000E+03  0.00000000000E+00 0. -1.
         24    1    1    2    0    0 -0.59956336031E+02  0.73384093168E+02  0.13334042345E+02  0.12500000000E+03  0.80419002446E+02 0. -1.
        -24    1    1    2    0    0  0.59956336031E+02 -0.73384093168E+02 -0.13334042345E+02  0.12500000000E+03  0.80419002446E+02 0.  1.
</event>
<event>
 4    1  0.1586888E-001  0.1250000E+03  0.7546771E-02  0.1126479E+00
        -11   -1    0    0    0    0  0.00000000000E+00  0.00000000000E+00  0.12500000000E+03  0.12500000000E+03  0.00000000000E+00 0.  1.
         11   -1    0    0    0    0 -0.00000000000E+00 -0.00000000000E+00 -0.12500000000E+03  0.12500000000E+03  0.00000000000E+00 0. -1.
         24    1    1    2    0    0  0.41047464730E+02 -0.32800376875E+00  0.86445254921E+02  0.12500000000E+03  0.80419002446E+02 0.  1.
        -24    1    1    2    0    0 -0.41047464730E+02  0.32800376875E+00 -0.86445254921E+02  0.12500000000E+03  0.80419002446E+02 0. -1.
</event>
<event>
 4    1  0.1586888E-001  0.1250000E+03  0.7546771E-02  0.1126479E+00
        -11   -1    0    0    0    0  0.00000000000E+00  0.00000000000E+00  0.12500000000E+03  0.12500000000E+03  0.00000000000E+00 0.  1.
         11   -1    0    0    0    0 -0.00000000000E+00 -0.00000000000E+00 -0.12500000000E+03  0.12500000000E+03  0.00000000000E+00 0. -1.
         24    1    1    2    0    0  0.11521906192E+02  0.22789552946E+02  0.92226167652E+02  0.12500000000E+03  0.80419002446E+02 0.  1.
        -24    1    1    2    0    0 -0.11521906192E+02 -0.22789552946E+02 -0.92226167652E+02  0.12500000000E+03  0.80419002446E+02 0. -1.
</event>
<event>
 4    1  0.1586888E-001  0.1250000E+03  0.7546771E-02  0.1126479E+00
        -11   -1    0    0    0    0  0.00000000000E+00  0.00000000000E+00  0.12500000000E+03  0.12500000000E+03  0.00000000000E+00 0.  1.
         11   -1    0    0    0    0 -0.00000000000E+00 -0.00000000000E+00 -0.12500000000E+03  0.12500000000E+03  0.00000000000E+00 0. -1.
         24    1    1    2    0    0  0.20513448464E+02 -0.81738148582E+01  0.93113754239E+02  0.12500000000E+03  0.80419002446E+02 0.  1.
        -24    1    1    2    0    0 -0.20513448464E+02  0.81738148582E+01 -0.93113754239E+02  0.12500000000E+03  0.80419002446E+02 0. -1.
</event>
<event>
 4    1  0.1586888E-001  0.1250000E+03  0.7546771E-02  0.1126479E+00
        -11   -1    0    0    0    0  0.00000000000E+00  0.00000000000E+00  0.12500000000E+03  0.12500000000E+03  0.00000000000E+00 0.  1.
         11   -1    0    0    0    0 -0.00000000000E+00 -0.00000000000E+00 -0.12500000000E+03  0.12500000000E+03  0.00000000000E+00 0. -1.
         24    1    1    2    0    0  0.81939400867E+02  0.49050654027E+00  0.49431548980E+02  0.12500000000E+03  0.80419002446E+02 0.  0.
        -24    1    1    2    0    0 -0.81939400867E+02 -0.49050654027E+00 -0.49431548980E+02  0.12500000000E+03  0.80419002446E+02 0. -1.
</event>
<event>
 4    1  0.1586888E-001  0.1250000E+03  0.7546771E-02  0.1126479E+00
        -11   -1    0    0    0    0  0.00000000000E+00  0.00000000000E+00  0.12500000000E+03  0.12500000000E+03  0.00000000000E+00 0.  1.
         11   -1    0    0    0    0 -0.00000000000E+00 -0.00000000000E+00 -0.12500000000E+03  0.12500000000E+03  0.00000000000E+00 0. -1.
         24    1    1    2    0    0 -0.51003515127E+02  0.75091480957E+01  0.80622814297E+02  0.12500000000E+03  0.80419002446E+02 0.  1.
        -24    1    1    2    0    0  0.51003515127E+02 -0.75091480957E+01 -0.80622814297E+02  0.12500000000E+03  0.80419002446E+02 0. -1.
</event>
<event>
 4    1  0.1586888E-001  0.1250000E+03  0.7546771E-02  0.1126479E+00
        -11   -1    0    0    0    0  0.00000000000E+00  0.00000000000E+00  0.12500000000E+03  0.12500000000E+03  0.00000000000E+00 0.  1.
         11   -1    0    0    0    0 -0.00000000000E+00 -0.00000000000E+00 -0.12500000000E+03  0.12500000000E+03  0.00000000000E+00 0. -1.
         24    1    1    2    0    0  0.45523564515E+01  0.30115021104E+00  0.95587496070E+02  0.12500000000E+03  0.80419002446E+02 0.  0.
        -24    1    1    2    0    0 -0.45523564515E+01 -0.30115021104E+00 -0.95587496070E+02  0.12500000000E+03  0.80419002446E+02 0. -1.
</event>
<event>
 4    1  0.1586888E-001  0.1250000E+03  0.7546771E-02  0.1126479E+00
        -11   -1    0    0    0    0  0.00000000000E+00  0.00000000000E+00  0.12500000000E+03  0.12500000000E+03  0.00000000000E+00 0.  1.
         11   -1    0    0    0    0 -0.00000000000E+00 -0.00000000000E+00 -0.12500000000E+03  0.12500000000E+03  0.00000000000E+00 0. -1.
         24    1    1    2    0    0 -0.82206686441E+01 -0.47032240532E+01  0.95226489677E+02  0.12500000000E+03  0.80419002446E+02 0.  1.
        -24    1    1    2    0    0  0.82206686441E+01  0.47032240532E+01 -0.95226489677E+02  0.12500000000E+03  0.80419002446E+02 0. -1.
</event>
<event>
 4    1  0.1586888E-001  0.1250000E+03  0.7546771E-02  0.1126479E+00
        -11   -1    0    0    0    0  0.00000000000E+00  0.00000000000E+00  0.12500000000E+03  0.12500000000E+03  0.00000000000E+00 0.  1.
         11   -1    0    0    0    0 -0.00000000000E+00 -0.00000000000E+00 -0.12500000000E+03  0.12500000000E+03  0.00000000000E+00 0. -1.
         24    1    1    2    0    0  0.14724099419E+02 -0.75630289359E+02  0.56754244541E+02  0.12500000000E+03  0.80419002446E+02 0.  1.
        -24    1    1    2    0    0 -0.14724099419E+02  0.75630289359E+02 -0.56754244541E+02  0.12500000000E+03  0.80419002446E+02 0. -1.
</event>
<event>
 4    1  0.1586888E-001  0.1250000E+03  0.7546771E-02  0.1126479E+00
        -11   -1    0    0    0    0  0.00000000000E+00  0.00000000000E+00  0.12500000000E+03  0.12500000000E+03  0.00000000000E+00 0.  1.
         11   -1    0    0    0    0 -0.00000000000E+00 -0.00000000000E+00 -0.12500000000E+03  0.12500000000E+03  0.00000000000E+00 0. -1.
         24    1    1    2    0    0  0.48783723713E+02 -0.40447003074E+02  0.71707546943E+02  0.12500000000E+03  0.80419002446E+02 0.  1.
        -24    1    1    2    0    0 -0.48783723713E+02  0.40447003074E+02 -0.71707546943E+02  0.12500000000E+03  0.80419002446E+02 0. -1.
</event>
<event>
 4    1  0.1586888E-001  0.1250000E+03  0.7546771E-02  0.1126479E+00
        -11   -1    0    0    0    0  0.00000000000E+00  0.00000000000E+00  0.12500000000E+03  0.12500000000E+03  0.00000000000E+00 0.  1.
         11   -1    0    0    0    0 -0.00000000000E+00 -0.00000000000E+00 -0.12500000000E+03  0.12500000000E+03  0.00000000000E+00 0. -1.
         24    1    1    2    0    0 -0.35304669039E+02  0.67498886698E+02  0.57924646604E+02  0.12500000000E+03  0.80419002446E+02 0.  1.
        -24    1    1    2    0    0  0.35304669039E+02 -0.67498886698E+02 -0.57924646604E+02  0.12500000000E+03  0.80419002446E+02 0. -1.
</event>
<event>
 4    1  0.1586888E-001  0.1250000E+03  0.7546771E-02  0.1126479E+00
        -11   -1    0    0    0    0  0.00000000000E+00  0.00000000000E+00  0.12500000000E+03  0.12500000000E+03  0.00000000000E+00 0.  1.
         11   -1    0    0    0    0 -0.00000000000E+00 -0.00000000000E+00 -0.12500000000E+03  0.12500000000E+03  0.00000000000E+00 0. -1.
         24    1    1    2    0    0 -0.12063402496E+02 -0.63564057825E+02  0.70511480758E+02  0.12500000000E+03  0.80419002446E+02 0.  1.
        -24    1    1    2    0    0  0.12063402496E+02  0.63564057825E+02 -0.70511480758E+02  0.12500000000E+03  0.80419002446E+02 0. -1.
</event>
<event>
 4    1  0.1586888E-001  0.1250000E+03  0.7546771E-02  0.1126479E+00
        -11   -1    0    0    0    0  0.00000000000E+00  0.00000000000E+00  0.12500000000E+03  0.12500000000E+03  0.00000000000E+00 0.  1.
         11   -1    0    0    0    0 -0.00000000000E+00 -0.00000000000E+00 -0.12500000000E+03  0.12500000000E+03  0.00000000000E+00 0. -1.
         24    1    1    2    0    0 -0.33263027915E+02  0.20534736685E+02  0.87348037235E+02  0.12500000000E+03  0.80419002446E+02 0.  1.
        -24    1    1    2    0    0  0.33263027915E+02 -0.20534736685E+02 -0.87348037235E+02  0.12500000000E+03  0.80419002446E+02 0. -1.
</event>
<event>
 4    1  0.1586888E-001  0.1250000E+03  0.7546771E-02  0.1126479E+00
        -11   -1    0    0    0    0  0.00000000000E+00  0.00000000000E+00  0.12500000000E+03  0.12500000000E+03  0.00000000000E+00 0.  1.
         11   -1    0    0    0    0 -0.00000000000E+00 -0.00000000000E+00 -0.12500000000E+03  0.12500000000E+03  0.00000000000E+00 0. -1.
         24    1    1    2    0    0 -0.62588386560E+02 -0.29688053543E+02 -0.66023460909E+02  0.12500000000E+03  0.80419002446E+02 0. -1.
        -24    1    1    2    0    0  0.62588386560E+02  0.29688053543E+02  0.66023460909E+02  0.12500000000E+03  0.80419002446E+02 0.  1.
</event>
<event>
 4    1  0.1586888E-001  0.1250000E+03  0.7546771E-02  0.1126479E+00
        -11   -1    0    0    0    0  0.00000000000E+00  0.00000000000E+00  0.12500000000E+03  0.12500000000E+03  0.00000000000E+00 0.  1.
         11   -1    0    0    0    0 -0.00000000000E+00 -0.00000000000E+00 -0.12500000000E+03  0.12500000000E+03  0.00000000000E+00 0. -1.
         24    1    1    2    0    0  0.15660838809E+02  0.88467705769E+02 -0.32954320042E+02  0.12500000000E+03  0.80419002446E+02 0. -1.
        -24    1    1    2    0    0 -0.15660838809E+02 -0.88467705769E+02  0.32954320042E+02  0.12500000000E+03  0.80419002446E+02 0.  1.
</event>
<event>
 4    1  0.1586888E-001  0.1250000E+03  0.7546771E-02  0.1126479E+00
        -11   -1    0    0    0    0  0.00000000000E+00  0.00000000000E+00  0.12500000000E+03  0.12500000000E+03  0.00000000000E+00 0.  1.
         11   -1    0    0    0    0 -0.00000000000E+00 -0.00000000000E+00 -0.12500000000E+03  0.12500000000E+03  0.00000000000E+00 0. -1.
         24    1    1    2    0    0  0.57104553948E+01 -0.22979128157E+02  0.92720733463E+02  0.12500000000E+03  0.80419002446E+02 0.  1.
        -24    1    1    2    0    0 -0.57104553948E+01  0.22979128157E+02 -0.92720733463E+02  0.12500000000E+03  0.80419002446E+02 0. -1.
</event>
<event>
 4    1  0.1586888E-001  0.1250000E+03  0.7546771E-02  0.1126479E+00
        -11   -1    0    0    0    0  0.00000000000E+00  0.00000000000E+00  0.12500000000E+03  0.12500000000E+03  0.00000000000E+00 0.  1.
         11   -1    0    0    0    0 -0.00000000000E+00 -0.00000000000E+00 -0.12500000000E+03  0.12500000000E+03  0.00000000000E+00 0. -1.
         24    1    1    2    0    0  0.26006029596E+02  0.47775944451E+02  0.78733281413E+02  0.12500000000E+03  0.80419002446E+02 0. -1.
        -24    1    1    2    0    0 -0.26006029596E+02 -0.47775944451E+02 -0.78733281413E+02  0.12500000000E+03  0.80419002446E+02 0.  0.
</event>
<event>
 4    1  0.1586888E-001  0.1250000E+03  0.7546771E-02  0.1126479E+00
        -11   -1    0    0    0    0  0.00000000000E+00  0.00000000000E+00  0.12500000000E+03  0.12500000000E+03  0.00000000000E+00 0.  1.
         11   -1    0    0    0    0 -0.00000000000E+00 -0.00000000000E+00 -0.12500000000E+03  0.12500000000E+03  0.00000000000E+00 0. -1.
         24    1    1    2    0    0  0.16135416898E+02  0.48241546371E+02  0.81056681223E+02  0.12500000000E+03  0.80419002446E+02 0.  1.
        -24    1    1    2    0    0 -0.16135416898E+02 -0.48241546371E+02 -0.81056681223E+02  0.12500000000E+03  0.80419002446E+02 0. -1.
</event>
<event>
 4    1  0.1586888E-001  0.1250000E+03  0.7546771E-02  0.1126479E+00
        -11   -1    0    0    0    0  0.00000000000E+00  0.00000000000E+00  0.12500000000E+03  0.12500000000E+03  0.00000000000E+00 0.  1.
         11   -1    0    0    0    0 -0.00000000000E+00 -0.00000000000E+00 -0.12500000000E+03  0.12500000000E+03  0.00000000000E+00 0. -1.
         24    1    1    2    0    0  0.20689523939E+02 -0.46023924995E+02  0.81311290562E+02  0.12500000000E+03  0.80419002446E+02 0.  1.
        -24    1    1    2    0    0 -0.20689523939E+02  0.46023924995E+02 -0.81311290562E+02  0.12500000000E+03  0.80419002446E+02 0. -1.
</event>
<event>
 4    1  0.1586888E-001  0.1250000E+03  0.7546771E-02  0.1126479E+00
        -11   -1    0    0    0    0  0.00000000000E+00  0.00000000000E+00  0.12500000000E+03  0.12500000000E+03  0.00000000000E+00 0.  1.
         11   -1    0    0    0    0 -0.00000000000E+00 -0.00000000000E+00 -0.12500000000E+03  0.12500000000E+03  0.00000000000E+00 0. -1.
         24    1    1    2    0    0 -0.25611350783E+02  0.65747806190E+01  0.91970729129E+02  0.12500000000E+03  0.80419002446E+02 0.  1.
        -24    1    1    2    0    0  0.25611350783E+02 -0.65747806190E+01 -0.91970729129E+02  0.12500000000E+03  0.80419002446E+02 0. -1.
</event>
<event>
 4    1  0.1586888E-001  0.1250000E+03  0.7546771E-02  0.1126479E+00
        -11   -1    0    0    0    0  0.00000000000E+00  0.00000000000E+00  0.12500000000E+03  0.12500000000E+03  0.00000000000E+00 0.  1.
         11   -1    0    0    0    0 -0.00000000000E+00 -0.00000000000E+00 -0.12500000000E+03  0.12500000000E+03  0.00000000000E+00 0. -1.
         24    1    1    2    0    0  0.11058166664E+02 -0.64879765315E+02  0.69470260171E+02  0.12500000000E+03  0.80419002446E+02 0.  0.
        -24    1    1    2    0    0 -0.11058166664E+02  0.64879765315E+02 -0.69470260171E+02  0.12500000000E+03  0.80419002446E+02 0.  1.
</event>
<event>
 4    1  0.1586888E-001  0.1250000E+03  0.7546771E-02  0.1126479E+00
        -11   -1    0    0    0    0  0.00000000000E+00  0.00000000000E+00  0.12500000000E+03  0.12500000000E+03  0.00000000000E+00 0.  1.
         11   -1    0    0    0    0 -0.00000000000E+00 -0.00000000000E+00 -0.12500000000E+03  0.12500000000E+03  0.00000000000E+00 0. -1.
         24    1    1    2    0    0  0.77453704283E+02  0.32150762871E+02  0.46098114769E+02  0.12500000000E+03  0.80419002446E+02 0.  1.
        -24    1    1    2    0    0 -0.77453704283E+02 -0.32150762871E+02 -0.46098114769E+02  0.12500000000E+03  0.80419002446E+02 0.  0.
</event>
<event>
 4    1  0.1586888E-001  0.1250000E+03  0.7546771E-02  0.1126479E+00
        -11   -1    0    0    0    0  0.00000000000E+00  0.00000000000E+00  0.12500000000E+03  0.12500000000E+03  0.00000000000E+00 0.  1.
         11   -1    0    0    0    0 -0.00000000000E+00 -0.00000000000E+00 -0.12500000000E+03  0.12500000000E+03  0.00000000000E+00 0. -1.
         24    1    1    2    0    0 -0.37005321925E+02  0.26301183148E+02  0.84241545332E+02  0.12500000000E+03  0.80419002446E+02 0.  1.
        -24    1    1    2    0    0  0.37005321925E+02 -0.26301183148E+02 -0.84241545332E+02  0.12500000000E+03  0.80419002446E+02 0. -1.
</event>
<event>
 4    1  0.1586888E-001  0.1250000E+03  0.7546771E-02  0.1126479E+00
        -11   -1    0    0    0    0  0.00000000000E+00  0.00000000000E+00  0.12500000000E+03  0.12500000000E+03  0.00000000000E+00 0.  1.
         11   -1    0    0    0    0 -0.00000000000E+00 -0.00000000000E+00 -0.12500000000E+03  0.12500000000E+03  0.00000000000E+00 0. -1.
         24    1    1    2    0    0 -0.39624395407E+02  0.47335888433E+00  0.87106069052E+02  0.12500000000E+03  0.80419002446E+02 0.  1.
        -24    1    1    2    0    0  0.39624395407E+02 -0.47335888433E+00 -0.87106069052E+02  0.12500000000E+03  0.80419002446E+02 0. -1.
</event>
<event>
 4    1  0.1586888E-001  0.1250000E+03  0.7546771E-02  0.1126479E+00
        -11   -1    0    0    0    0  0.00000000000E+00  0.00000000000E+00  0.12500000000E+03  0.12500000000E+03  0.00000000000E+00 0.  1.
         11   -1    0    0    0    0 -0.00000000000E+00 -0.00000000000E+00 -0.12500000000E+03  0.12500000000E+03  0.00000000000E+00 0. -1.
         24    1    1    2    0    0 -0.32627576134E+02  0.18353759790E+02  0.88070226654E+02  0.12500000000E+03  0.80419002446E+02 0.  1.
        -24    1    1    2    0    0  0.32627576134E+02 -0.18353759790E+02 -0.88070226654E+02  0.12500000000E+03  0.80419002446E+02 0. -1.
</event>
<event>
 4    1  0.1586888E-001  0.1250000E+03  0.7546771E-02  0.1126479E+00
        -11   -1    0    0    0    0  0.00000000000E+00  0.00000000000E+00  0.12500000000E+03  0.12500000000E+03  0.00000000000E+00 0.  1.
         11   -1    0    0    0    0 -0.00000000000E+00 -0.00000000000E+00 -0.12500000000E+03  0.12500000000E+03  0.00000000000E+00 0. -1.
         24    1    1    2    0    0  0.46237588172E+02  0.51262390689E+01 -0.83627693731E+02  0.12500000000E+03  0.80419002446E+02 0. -1.
        -24    1    1    2    0    0 -0.46237588172E+02 -0.51262390689E+01  0.83627693731E+02  0.12500000000E+03  0.80419002446E+02 0.  1.
</event>
<event>
 4    1  0.1586888E-001  0.1250000E+03  0.7546771E-02  0.1126479E+00
        -11   -1    0    0    0    0  0.00000000000E+00  0.00000000000E+00  0.12500000000E+03  0.12500000000E+03  0.00000000000E+00 0.  1.
         11   -1    0    0    0    0 -0.00000000000E+00 -0.00000000000E+00 -0.12500000000E+03  0.12500000000E+03  0.00000000000E+00 0. -1.
         24    1    1    2    0    0 -0.61727641635E+02 -0.13733761276E+02  0.71825246989E+02  0.12500000000E+03  0.80419002446E+02 0.  1.
        -24    1    1    2    0    0  0.61727641635E+02  0.13733761276E+02 -0.71825246989E+02  0.12500000000E+03  0.80419002446E+02 0. -1.
</event>
<event>
 4    1  0.1586888E-001  0.1250000E+03  0.7546771E-02  0.1126479E+00
        -11   -1    0    0    0    0  0.00000000000E+00  0.00000000000E+00  0.12500000000E+03  0.12500000000E+03  0.00000000000E+00 0.  1.
         11   -1    0    0    0    0 -0.00000000000E+00 -0.00000000000E+00 -0.12500000000E+03  0.12500000000E+03  0.00000000000E+00 0. -1.
         24    1    1    2    0    0 -0.63226967818E+02  0.44339887684E+02  0.56516448459E+02  0.12500000000E+03  0.80419002446E+02 0.  1.
        -24    1    1    2    0    0  0.63226967818E+02 -0.44339887684E+02 -0.56516448459E+02  0.12500000000E+03  0.80419002446E+02 0. -1.
</event>
<event>
 4    1  0.1586888E-001  0.1250000E+03  0.7546771E-02  0.1126479E+00
        -11   -1    0    0    0    0  0.00000000000E+00  0.00000000000E+00  0.12500000000E+03  0.12500000000E+03  0.00000000000E+00 0.  1.
         11   -1    0    0    0    0 -0.00000000000E+00 -0.00000000000E+00 -0.12500000000E+03  0.12500000000E+03  0.00000000000E+00 0. -1.
         24    1    1    2    0    0 -0.53987643288E+02 -0.77658714912E+02  0.14568542005E+02  0.12500000000E+03  0.80419002446E+02 0.  1.
        -24    1    1    2    0    0  0.53987643288E+02  0.77658714912E+02 -0.14568542005E+02  0.12500000000E+03  0.80419002446E+02 0. -1.
</event>
<event>
 4    1  0.1586888E-001  0.1250000E+03  0.7546771E-02  0.1126479E+00
        -11   -1    0    0    0    0  0.00000000000E+00  0.00000000000E+00  0.12500000000E+03  0.12500000000E+03  0.00000000000E+00 0.  1.
         11   -1    0    0    0    0 -0.00000000000E+00 -0.00000000000E+00 -0.12500000000E+03  0.12500000000E+03  0.00000000000E+00 0. -1.
         24    1    1    2    0    0 -0.30996354864E+02 -0.42693136762E+02  0.79839251651E+02  0.12500000000E+03  0.80419002446E+02 0.  1.
        -24    1    1    2    0    0  0.30996354864E+02  0.42693136762E+02 -0.79839251651E+02  0.12500000000E+03  0.80419002446E+02 0. -1.
</event>
<event>
 4    1  0.1586888E-001  0.1250000E+03  0.7546771E-02  0.1126479E+00
        -11   -1    0    0    0    0  0.00000000000E+00  0.00000000000E+00  0.12500000000E+03  0.12500000000E+03  0.00000000000E+00 0.  1.
         11   -1    0    0    0    0 -0.00000000000E+00 -0.00000000000E+00 -0.12500000000E+03  0.12500000000E+03  0.00000000000E+00 0. -1.
         24    1    1    2    0    0  0.38640768041E+02  0.23199146338E+02  0.84418449998E+02  0.12500000000E+03  0.80419002446E+02 0.  1.
        -24    1    1    2    0    0 -0.38640768041E+02 -0.23199146338E+02 -0.84418449998E+02  0.12500000000E+03  0.80419002446E+02 0. -1.
</event>
<event>
 4    1  0.1586888E-001  0.1250000E+03  0.7546771E-02  0.1126479E+00
        -11   -1    0    0    0    0  0.00000000000E+00  0.00000000000E+00  0.12500000000E+03  0.12500000000E+03  0.00000000000E+00 0.  1.
         11   -1    0    0    0    0 -0.00000000000E+00 -0.00000000000E+00 -0.12500000000E+03  0.12500000000E+03  0.00000000000E+00 0. -1.
         24    1    1    2    0    0  0.52605542998E+02 -0.27157684192E+02  0.75185777118E+02  0.12500000000E+03  0.80419002446E+02 0.  0.
        -24    1    1    2    0    0 -0.52605542998E+02  0.27157684192E+02 -0.75185777118E+02  0.12500000000E+03  0.80419002446E+02 0.  1.
</event>
<event>
 4    1  0.1586888E-001  0.1250000E+03  0.7546771E-02  0.1126479E+00
        -11   -1    0    0    0    0  0.00000000000E+00  0.00000000000E+00  0.12500000000E+03  0.12500000000E+03  0.00000000000E+00 0.  1.
         11   -1    0    0    0    0 -0.00000000000E+00 -0.00000000000E+00 -0.12500000000E+03  0.12500000000E+03  0.00000000000E+00 0. -1.
         24    1    1    2    0    0 -0.13440381177E+02  0.28990333676E+01  0.94703409680E+02  0.12500000000E+03  0.80419002446E+02 0.  1.
        -24    1    1    2    0    0  0.13440381177E+02 -0.28990333676E+01 -0.94703409680E+02  0.12500000000E+03  0.80419002446E+02 0. -1.
</event>
<event>
 4    1  0.1586888E-001  0.1250000E+03  0.7546771E-02  0.1126479E+00
        -11   -1    0    0    0    0  0.00000000000E+00  0.00000000000E+00  0.12500000000E+03  0.12500000000E+03  0.00000000000E+00 0.  1.
         11   -1    0    0    0    0 -0.00000000000E+00 -0.00000000000E+00 -0.12500000000E+03  0.12500000000E+03  0.00000000000E+00 0. -1.
         24    1    1    2    0    0 -0.16044232822E+02  0.69604649191E+02  0.63683274490E+02  0.12500000000E+03  0.80419002446E+02 0.  1.
        -24    1    1    2    0    0  0.16044232822E+02 -0.69604649191E+02 -0.63683274490E+02  0.12500000000E+03  0.80419002446E+02 0. -1.
</event>
<event>
 4    1  0.1586888E-001  0.1250000E+03  0.7546771E-02  0.1126479E+00
        -11   -1    0    0    0    0  0.00000000000E+00  0.00000000000E+00  0.12500000000E+03  0.12500000000E+03  0.00000000000E+00 0.  1.
         11   -1    0    0    0    0 -0.00000000000E+00 -0.00000000000E+00 -0.12500000000E+03  0.12500000000E+03  0.00000000000E+00 0. -1.
         24    1    1    2    0    0  0.57627864939E+02 -0.33359124304E+02  0.68731230557E+02  0.12500000000E+03  0.80419002446E+02 0.  1.
        -24    1    1    2    0    0 -0.57627864939E+02  0.33359124304E+02 -0.68731230557E+02  0.12500000000E+03  0.80419002446E+02 0. -1.
</event>
<event>
 4    1  0.1586888E-001  0.1250000E+03  0.7546771E-02  0.1126479E+00
        -11   -1    0    0    0    0  0.00000000000E+00  0.00000000000E+00  0.12500000000E+03  0.12500000000E+03  0.00000000000E+00 0.  1.
         11   -1    0    0    0    0 -0.00000000000E+00 -0.00000000000E+00 -0.12500000000E+03  0.12500000000E+03  0.00000000000E+00 0. -1.
         24    1    1    2    0    0  0.67568959299E+02  0.58605681495E+02  0.34023431358E+02  0.12500000000E+03  0.80419002446E+02 0.  0.
        -24    1    1    2    0    0 -0.67568959299E+02 -0.58605681495E+02 -0.34023431358E+02  0.12500000000E+03  0.80419002446E+02 0. -1.
</event>
<event>
 4    1  0.1586888E-001  0.1250000E+03  0.7546771E-02  0.1126479E+00
        -11   -1    0    0    0    0  0.00000000000E+00  0.00000000000E+00  0.12500000000E+03  0.12500000000E+03  0.00000000000E+00 0.  1.
         11   -1    0    0    0    0 -0.00000000000E+00 -0.00000000000E+00 -0.12500000000E+03  0.12500000000E+03  0.00000000000E+00 0. -1.
         24    1    1    2    0    0  0.23621454186E+02 -0.95848001786E+01  0.92238509058E+02  0.12500000000E+03  0.80419002446E+02 0.  1.
        -24    1    1    2    0    0 -0.23621454186E+02  0.95848001786E+01 -0.92238509058E+02  0.12500000000E+03  0.80419002446E+02 0. -1.
</event>
<event>
 4    1  0.1586888E-001  0.1250000E+03  0.7546771E-02  0.1126479E+00
        -11   -1    0    0    0    0  0.00000000000E+00  0.00000000000E+00  0.12500000000E+03  0.12500000000E+03  0.00000000000E+00 0.  1.
         11   -1    0    0    0    0 -0.00000000000E+00 -0.00000000000E+00 -0.12500000000E+03  0.12500000000E+03  0.00000000000E+00 0. -1.
         24    1    1    2    0    0  0.24977316750E+02 -0.41139561951E+02  0.82713083222E+02  0.12500000000E+03  0.80419002446E+02 0.  1.
        -24    1    1    2    0    0 -0.24977316750E+02  0.41139561951E+02 -0.82713083222E+02  0.12500000000E+03  0.80419002446E+02 0. -1.
</event>
<event>
 4    1  0.1586888E-001  0.1250000E+03  0.7546771E-02  0.1126479E+00
        -11   -1    0    0    0    0  0.00000000000E+00  0.00000000000E+00  0.12500000000E+03  0.12500000000E+03  0.00000000000E+00 0.  1.
         11   -1    0    0    0    0 -0.00000000000E+00 -0.00000000000E+00 -0.12500000000E+03  0.12500000000E+03  0.00000000000E+00 0. -1.
         24    1    1    2    0    0  0.37470019034E+00  0.19205462608E+01  0.95676304002E+02  0.12500000000E+03  0.80419002446E+02 0.  0.
        -24    1    1    2    0    0 -0.37470019034E+00 -0.19205462608E+01 -0.95676304002E+02  0.12500000000E+03  0.80419002446E+02 0. -1.
</event>
<event>
 4    1  0.1586888E-001  0.1250000E+03  0.7546771E-02  0.1126479E+00
        -11   -1    0    0    0    0  0.00000000000E+00  0.00000000000E+00  0.12500000000E+03  0.12500000000E+03  0.00000000000E+00 0.  1.
         11   -1    0    0    0    0 -0.00000000000E+00 -0.00000000000E+00 -0.12500000000E+03  0.12500000000E+03  0.00000000000E+00 0. -1.
         24    1    1    2    0    0  0.48727382641E+02  0.14100440048E+02  0.81145571765E+02  0.12500000000E+03  0.80419002446E+02 0.  1.
        -24    1    1    2    0    0 -0.48727382641E+02 -0.14100440048E+02 -0.81145571765E+02  0.12500000000E+03  0.80419002446E+02 0.  1.
</event>
<event>
 4    1  0.1586888E-001  0.1250000E+03  0.7546771E-02  0.1126479E+00
        -11   -1    0    0    0    0  0.00000000000E+00  0.00000000000E+00  0.12500000000E+03  0.12500000000E+03  0.00000000000E+00 0.  1.
         11   -1    0    0    0    0 -0.00000000000E+00 -0.00000000000E+00 -0.12500000000E+03  0.12500000000E+03  0.00000000000E+00 0. -1.
         24    1    1    2    0    0  0.94523980323E+02 -0.28075246527E+01  0.14666935430E+02  0.12500000000E+03  0.80419002446E+02 0.  0.
        -24    1    1    2    0    0 -0.94523980323E+02  0.28075246527E+01 -0.14666935430E+02  0.12500000000E+03  0.80419002446E+02 0.  1.
</event>
<event>
 4    1  0.1586888E-001  0.1250000E+03  0.7546771E-02  0.1126479E+00
        -11   -1    0    0    0    0  0.00000000000E+00  0.00000000000E+00  0.12500000000E+03  0.12500000000E+03  0.00000000000E+00 0.  1.
         11   -1    0    0    0    0 -0.00000000000E+00 -0.00000000000E+00 -0.12500000000E+03  0.12500000000E+03  0.00000000000E+00 0. -1.
         24    1    1    2    0    0 -0.14801566309E+02  0.25739052672E+02  0.90973616219E+02  0.12500000000E+03  0.80419002446E+02 0.  1.
        -24    1    1    2    0    0  0.14801566309E+02 -0.25739052672E+02 -0.90973616219E+02  0.12500000000E+03  0.80419002446E+02 0. -1.
</event>
<event>
 4    1  0.1586888E-001  0.1250000E+03  0.7546771E-02  0.1126479E+00
        -11   -1    0    0    0    0  0.00000000000E+00  0.00000000000E+00  0.12500000000E+03  0.12500000000E+03  0.00000000000E+00 0.  1.
         11   -1    0    0    0    0 -0.00000000000E+00 -0.00000000000E+00 -0.12500000000E+03  0.12500000000E+03  0.00000000000E+00 0. -1.
         24    1    1    2    0    0 -0.25982715517E+01 -0.33819194225E+02  0.89483490838E+02  0.12500000000E+03  0.80419002446E+02 0.  1.
        -24    1    1    2    0    0  0.25982715517E+01  0.33819194225E+02 -0.89483490838E+02  0.12500000000E+03  0.80419002446E+02 0. -1.
</event>
<event>
 4    1  0.1586888E-001  0.1250000E+03  0.7546771E-02  0.1126479E+00
        -11   -1    0    0    0    0  0.00000000000E+00  0.00000000000E+00  0.12500000000E+03  0.12500000000E+03  0.00000000000E+00 0.  1.
         11   -1    0    0    0    0 -0.00000000000E+00 -0.00000000000E+00 -0.12500000000E+03  0.12500000000E+03  0.00000000000E+00 0. -1.
         24    1    1    2    0    0 -0.53048553725E+01  0.62644103782E+02 -0.72148172648E+02  0.12500000000E+03  0.80419002446E+02 0.  0.
        -24    1    1    2    0    0  0.53048553725E+01 -0.62644103782E+02  0.72148172648E+02  0.12500000000E+03  0.80419002446E+02 0.  0.
</event>
<event>
 4    1  0.1586888E-001  0.1250000E+03  0.7546771E-02  0.1126479E+00
        -11   -1    0    0    0    0  0.00000000000E+00  0.00000000000E+00  0.12500000000E+03  0.12500000000E+03  0.00000000000E+00 0.  1.
         11   -1    0    0    0    0 -0.00000000000E+00 -0.00000000000E+00 -0.12500000000E+03  0.12500000000E+03  0.00000000000E+00 0. -1.
         24    1    1    2    0    0 -0.51291127722E+02 -0.11222865562E+02  0.80006571925E+02  0.12500000000E+03  0.80419002446E+02 0.  1.
        -24    1    1    2    0    0  0.51291127722E+02  0.11222865562E+02 -0.80006571925E+02  0.12500000000E+03  0.80419002446E+02 0. -1.
</event>
<event>
 4    1  0.1586888E-001  0.1250000E+03  0.7546771E-02  0.1126479E+00
        -11   -1    0    0    0    0  0.00000000000E+00  0.00000000000E+00  0.12500000000E+03  0.12500000000E+03  0.00000000000E+00 0.  1.
         11   -1    0    0    0    0 -0.00000000000E+00 -0.00000000000E+00 -0.12500000000E+03  0.12500000000E+03  0.00000000000E+00 0. -1.
         24    1    1    2    0    0 -0.60572467259E+02 -0.72743089425E+02 -0.14042905563E+02  0.12500000000E+03  0.80419002446E+02 0.  0.
        -24    1    1    2    0    0  0.60572467259E+02  0.72743089425E+02  0.14042905563E+02  0.12500000000E+03  0.80419002446E+02 0.  0.
</event>
<event>
 4    1  0.1586888E-001  0.1250000E+03  0.7546771E-02  0.1126479E+00
        -11   -1    0    0    0    0  0.00000000000E+00  0.00000000000E+00  0.12500000000E+03  0.12500000000E+03  0.00000000000E+00 0.  1.
         11   -1    0    0    0    0 -0.00000000000E+00 -0.00000000000E+00 -0.12500000000E+03  0.12500000000E+03  0.00000000000E+00 0. -1.
         24    1    1    2    0    0 -0.33851457184E+02 -0.89232967983E+02  0.70242663019E+01  0.12500000000E+03  0.80419002446E+02 0.  0.
        -24    1    1    2    0    0  0.33851457184E+02  0.89232967983E+02 -0.70242663019E+01  0.12500000000E+03  0.80419002446E+02 0. -1.
</event>
<event>
 4    1  0.1586888E-001  0.1250000E+03  0.7546771E-02  0.1126479E+00
        -11   -1    0    0    0    0  0.00000000000E+00  0.00000000000E+00  0.12500000000E+03  0.12500000000E+03  0.00000000000E+00 0.  1.
         11   -1    0    0    0    0 -0.00000000000E+00 -0.00000000000E+00 -0.12500000000E+03  0.12500000000E+03  0.00000000000E+00 0. -1.
         24    1    1    2    0    0 -0.11939487526E+02  0.16705574013E+01  0.94933881840E+02  0.12500000000E+03  0.80419002446E+02 0.  1.
        -24    1    1    2    0    0  0.11939487526E+02 -0.16705574013E+01 -0.94933881840E+02  0.12500000000E+03  0.80419002446E+02 0. -1.
</event>
<event>
 4    1  0.1586888E-001  0.1250000E+03  0.7546771E-02  0.1126479E+00
        -11   -1    0    0    0    0  0.00000000000E+00  0.00000000000E+00  0.12500000000E+03  0.12500000000E+03  0.00000000000E+00 0.  1.
         11   -1    0    0    0    0 -0.00000000000E+00 -0.00000000000E+00 -0.12500000000E+03  0.12500000000E+03  0.00000000000E+00 0. -1.
         24    1    1    2    0    0  0.38456681811E+02  0.65728078368E+01  0.87382297216E+02  0.12500000000E+03  0.80419002446E+02 0.  1.
        -24    1    1    2    0    0 -0.38456681811E+02 -0.65728078368E+01 -0.87382297216E+02  0.12500000000E+03  0.80419002446E+02 0. -1.
</event>
<event>
 4    1  0.1586888E-001  0.1250000E+03  0.7546771E-02  0.1126479E+00
        -11   -1    0    0    0    0  0.00000000000E+00  0.00000000000E+00  0.12500000000E+03  0.12500000000E+03  0.00000000000E+00 0.  1.
         11   -1    0    0    0    0 -0.00000000000E+00 -0.00000000000E+00 -0.12500000000E+03  0.12500000000E+03  0.00000000000E+00 0. -1.
         24    1    1    2    0    0 -0.85264248568E+02  0.27608240844E+02  0.33549619956E+02  0.12500000000E+03  0.80419002446E+02 0.  1.
        -24    1    1    2    0    0  0.85264248568E+02 -0.27608240844E+02 -0.33549619956E+02  0.12500000000E+03  0.80419002446E+02 0. -1.
</event>
<event>
 4    1  0.1586888E-001  0.1250000E+03  0.7546771E-02  0.1126479E+00
        -11   -1    0    0    0    0  0.00000000000E+00  0.00000000000E+00  0.12500000000E+03  0.12500000000E+03  0.00000000000E+00 0.  1.
         11   -1    0    0    0    0 -0.00000000000E+00 -0.00000000000E+00 -0.12500000000E+03  0.12500000000E+03  0.00000000000E+00 0. -1.
         24    1    1    2    0    0  0.19525913845E+02  0.28795197141E+01  0.93638833292E+02  0.12500000000E+03  0.80419002446E+02 0.  1.
        -24    1    1    2    0    0 -0.19525913845E+02 -0.28795197141E+01 -0.93638833292E+02  0.12500000000E+03  0.80419002446E+02 0. -1.
</event>
<event>
 4    1  0.1586888E-001  0.1250000E+03  0.7546771E-02  0.1126479E+00
        -11   -1    0    0    0    0  0.00000000000E+00  0.00000000000E+00  0.12500000000E+03  0.12500000000E+03  0.00000000000E+00 0.  1.
         11   -1    0    0    0    0 -0.00000000000E+00 -0.00000000000E+00 -0.12500000000E+03  0.12500000000E+03  0.00000000000E+00 0. -1.
         24    1    1    2    0    0 -0.80599678694E+02  0.18158085481E+02  0.48288298497E+02  0.12500000000E+03  0.80419002446E+02 0. -1.
        -24    1    1    2    0    0  0.80599678694E+02 -0.18158085481E+02 -0.48288298497E+02  0.12500000000E+03  0.80419002446E+02 0.  0.
</event>
<event>
 4    1  0.1586888E-001  0.1250000E+03  0.7546771E-02  0.1126479E+00
        -11   -1    0    0    0    0  0.00000000000E+00  0.00000000000E+00  0.12500000000E+03  0.12500000000E+03  0.00000000000E+00 0.  1.
         11   -1    0    0    0    0 -0.00000000000E+00 -0.00000000000E+00 -0.12500000000E+03  0.12500000000E+03  0.00000000000E+00 0. -1.
         24    1    1    2    0    0  0.51135486565E+02 -0.49450677982E+02  0.64012315272E+02  0.12500000000E+03  0.80419002446E+02 0.  1.
        -24    1    1    2    0    0 -0.51135486565E+02  0.49450677982E+02 -0.64012315272E+02  0.12500000000E+03  0.80419002446E+02 0. -1.
</event>
<event>
 4    1  0.1586888E-001  0.1250000E+03  0.7546771E-02  0.1126479E+00
        -11   -1    0    0    0    0  0.00000000000E+00  0.00000000000E+00  0.12500000000E+03  0.12500000000E+03  0.00000000000E+00 0.  1.
         11   -1    0    0    0    0 -0.00000000000E+00 -0.00000000000E+00 -0.12500000000E+03  0.12500000000E+03  0.00000000000E+00 0. -1.
         24    1    1    2    0    0  0.66697012452E+02  0.43496893342E+02  0.53078365134E+02  0.12500000000E+03  0.80419002446E+02 0.  1.
        -24    1    1    2    0    0 -0.66697012452E+02 -0.43496893342E+02 -0.53078365134E+02  0.12500000000E+03  0.80419002446E+02 0.  0.
</event>
<event>
 4    1  0.1586888E-001  0.1250000E+03  0.7546771E-02  0.1126479E+00
        -11   -1    0    0    0    0  0.00000000000E+00  0.00000000000E+00  0.12500000000E+03  0.12500000000E+03  0.00000000000E+00 0.  1.
         11   -1    0    0    0    0 -0.00000000000E+00 -0.00000000000E+00 -0.12500000000E+03  0.12500000000E+03  0.00000000000E+00 0. -1.
         24    1    1    2    0    0 -0.35980393191E+02  0.35072781306E+02  0.81443817217E+02  0.12500000000E+03  0.80419002446E+02 0.  0.
        -24    1    1    2    0    0  0.35980393191E+02 -0.35072781306E+02 -0.81443817217E+02  0.12500000000E+03  0.80419002446E+02 0.  0.
</event>
<event>
 4    1  0.1586888E-001  0.1250000E+03  0.7546771E-02  0.1126479E+00
        -11   -1    0    0    0    0  0.00000000000E+00  0.00000000000E+00  0.12500000000E+03  0.12500000000E+03  0.00000000000E+00 0.  1.
         11   -1    0    0    0    0 -0.00000000000E+00 -0.00000000000E+00 -0.12500000000E+03  0.12500000000E+03  0.00000000000E+00 0. -1.
         24    1    1    2    0    0 -0.45854482071E+02 -0.80521638265E+02 -0.23904315315E+02  0.12500000000E+03  0.80419002446E+02 0. -1.
        -24    1    1    2    0    0  0.45854482071E+02  0.80521638265E+02  0.23904315315E+02  0.12500000000E+03  0.80419002446E+02 0.  1.
</event>
<event>
 4    1  0.1586888E-001  0.1250000E+03  0.7546771E-02  0.1126479E+00
        -11   -1    0    0    0    0  0.00000000000E+00  0.00000000000E+00  0.12500000000E+03  0.12500000000E+03  0.00000000000E+00 0.  1.
         11   -1    0    0    0    0 -0.00000000000E+00 -0.00000000000E+00 -0.12500000000E+03  0.12500000000E+03  0.00000000000E+00 0. -1.
         24    1    1    2    0    0 -0.46608625892E+01 -0.31011941608E+02  0.90411945468E+02  0.12500000000E+03  0.80419002446E+02 0.  1.
        -24    1    1    2    0    0  0.46608625892E+01  0.31011941608E+02 -0.90411945468E+02  0.12500000000E+03  0.80419002446E+02 0. -1.
</event>
<event>
 4    1  0.1586888E-001  0.1250000E+03  0.7546771E-02  0.1126479E+00
        -11   -1    0    0    0    0  0.00000000000E+00  0.00000000000E+00  0.12500000000E+03  0.12500000000E+03  0.00000000000E+00 0.  1.
         11   -1    0    0    0    0 -0.00000000000E+00 -0.00000000000E+00 -0.12500000000E+03  0.12500000000E+03  0.00000000000E+00 0. -1.
         24    1    1    2    0    0  0.69113380678E+02 -0.26784280447E+02  0.60528728533E+02  0.12500000000E+03  0.80419002446E+02 0.  1.
        -24    1    1    2    0    0 -0.69113380678E+02  0.26784280447E+02 -0.60528728533E+02  0.12500000000E+03  0.80419002446E+02 0. -1.
</event>
<event>
 4    1  0.1586888E-001  0.1250000E+03  0.7546771E-02  0.1126479E+00
        -11   -1    0    0    0    0  0.00000000000E+00  0.00000000000E+00  0.12500000000E+03  0.12500000000E+03  0.00000000000E+00 0.  1.
         11   -1    0    0    0    0 -0.00000000000E+00 -0.00000000000E+00 -0.12500000000E+03  0.12500000000E+03  0.00000000000E+00 0. -1.
         24    1    1    2    0    0 -0.17580826438E+01  0.25095617757E+02  0.92330402146E+02  0.12500000000E+03  0.80419002446E+02 0.  1.
        -24    1    1    2    0    0  0.17580826438E+01 -0.25095617757E+02 -0.92330402146E+02  0.12500000000E+03  0.80419002446E+02 0. -1.
</event>
<event>
 4    1  0.1586888E-001  0.1250000E+03  0.7546771E-02  0.1126479E+00
        -11   -1    0    0    0    0  0.00000000000E+00  0.00000000000E+00  0.12500000000E+03  0.12500000000E+03  0.00000000000E+00 0.  1.
         11   -1    0    0    0    0 -0.00000000000E+00 -0.00000000000E+00 -0.12500000000E+03  0.12500000000E+03  0.00000000000E+00 0. -1.
         24    1    1    2    0    0  0.17743184797E+02 -0.44061297119E+02  0.83075661508E+02  0.12500000000E+03  0.80419002446E+02 0.  1.
        -24    1    1    2    0    0 -0.17743184797E+02  0.44061297119E+02 -0.83075661508E+02  0.12500000000E+03  0.80419002446E+02 0. -1.
</event>
<event>
 4    1  0.1586888E-001  0.1250000E+03  0.7546771E-02  0.1126479E+00
        -11   -1    0    0    0    0  0.00000000000E+00  0.00000000000E+00  0.12500000000E+03  0.12500000000E+03  0.00000000000E+00 0.  1.
         11   -1    0    0    0    0 -0.00000000000E+00 -0.00000000000E+00 -0.12500000000E+03  0.12500000000E+03  0.00000000000E+00 0. -1.
         24    1    1    2    0    0 -0.10846124091E+02  0.42935487198E+00  0.95078711036E+02  0.12500000000E+03  0.80419002446E+02 0.  0.
        -24    1    1    2    0    0  0.10846124091E+02 -0.42935487198E+00 -0.95078711036E+02  0.12500000000E+03  0.80419002446E+02 0. -1.
</event>
<event>
 4    1  0.1586888E-001  0.1250000E+03  0.7546771E-02  0.1126479E+00
        -11   -1    0    0    0    0  0.00000000000E+00  0.00000000000E+00  0.12500000000E+03  0.12500000000E+03  0.00000000000E+00 0.  1.
         11   -1    0    0    0    0 -0.00000000000E+00 -0.00000000000E+00 -0.12500000000E+03  0.12500000000E+03  0.00000000000E+00 0. -1.
         24    1    1    2    0    0 -0.18609566154E-01  0.11662334133E+01  0.95689203147E+02  0.12500000000E+03  0.80419002446E+02 0.  1.
        -24    1    1    2    0    0  0.18609566154E-01 -0.11662334133E+01 -0.95689203147E+02  0.12500000000E+03  0.80419002446E+02 0.  0.
</event>
<event>
 4    1  0.1586888E-001  0.1250000E+03  0.7546771E-02  0.1126479E+00
        -11   -1    0    0    0    0  0.00000000000E+00  0.00000000000E+00  0.12500000000E+03  0.12500000000E+03  0.00000000000E+00 0.  1.
         11   -1    0    0    0    0 -0.00000000000E+00 -0.00000000000E+00 -0.12500000000E+03  0.12500000000E+03  0.00000000000E+00 0. -1.
         24    1    1    2    0    0 -0.52062246434E+02  0.72483004843E-01  0.80295088817E+02  0.12500000000E+03  0.80419002446E+02 0.  1.
        -24    1    1    2    0    0  0.52062246434E+02 -0.72483004843E-01 -0.80295088817E+02  0.12500000000E+03  0.80419002446E+02 0. -1.
</event>
<event>
 4    1  0.1586888E-001  0.1250000E+03  0.7546771E-02  0.1126479E+00
        -11   -1    0    0    0    0  0.00000000000E+00  0.00000000000E+00  0.12500000000E+03  0.12500000000E+03  0.00000000000E+00 0.  1.
         11   -1    0    0    0    0 -0.00000000000E+00 -0.00000000000E+00 -0.12500000000E+03  0.12500000000E+03  0.00000000000E+00 0. -1.
         24    1    1    2    0    0 -0.23545068820E+02 -0.24590941980E+02  0.89435447963E+02  0.12500000000E+03  0.80419002446E+02 0.  1.
        -24    1    1    2    0    0  0.23545068820E+02  0.24590941980E+02 -0.89435447963E+02  0.12500000000E+03  0.80419002446E+02 0. -1.
</event>
<event>
 4    1  0.1586888E-001  0.1250000E+03  0.7546771E-02  0.1126479E+00
        -11   -1    0    0    0    0  0.00000000000E+00  0.00000000000E+00  0.12500000000E+03  0.12500000000E+03  0.00000000000E+00 0.  1.
         11   -1    0    0    0    0 -0.00000000000E+00 -0.00000000000E+00 -0.12500000000E+03  0.12500000000E+03  0.00000000000E+00 0. -1.
         24    1    1    2    0    0  0.77285333520E+02 -0.31040057175E+02  0.47130416070E+02  0.12500000000E+03  0.80419002446E+02 0.  1.
        -24    1    1    2    0    0 -0.77285333520E+02  0.31040057175E+02 -0.47130416070E+02  0.12500000000E+03  0.80419002446E+02 0. -1.
</event>
<event>
 4    1  0.1586888E-001  0.1250000E+03  0.7546771E-02  0.1126479E+00
        -11   -1    0    0    0    0  0.00000000000E+00  0.00000000000E+00  0.12500000000E+03  0.12500000000E+03  0.00000000000E+00 0.  1.
         11   -1    0    0    0    0 -0.00000000000E+00 -0.00000000000E+00 -0.12500000000E+03  0.12500000000E+03  0.00000000000E+00 0. -1.
         24    1    1    2    0    0 -0.14235828589E+02 -0.89779888703E+02  0.29911482986E+02  0.12500000000E+03  0.80419002446E+02 0. -1.
        -24    1    1    2    0    0  0.14235828589E+02  0.89779888703E+02 -0.29911482986E+02  0.12500000000E+03  0.80419002446E+02 0.  0.
</event>
<event>
 4    1  0.1586888E-001  0.1250000E+03  0.7546771E-02  0.1126479E+00
        -11   -1    0    0    0    0  0.00000000000E+00  0.00000000000E+00  0.12500000000E+03  0.12500000000E+03  0.00000000000E+00 0.  1.
         11   -1    0    0    0    0 -0.00000000000E+00 -0.00000000000E+00 -0.12500000000E+03  0.12500000000E+03  0.00000000000E+00 0. -1.
         24    1    1    2    0    0  0.10388828609E+02 -0.47062475371E+01  0.95014249036E+02  0.12500000000E+03  0.80419002446E+02 0.  0.
        -24    1    1    2    0    0 -0.10388828609E+02  0.47062475371E+01 -0.95014249036E+02  0.12500000000E+03  0.80419002446E+02 0.  0.
</event>
<event>
 4    1  0.1586888E-001  0.1250000E+03  0.7546771E-02  0.1126479E+00
        -11   -1    0    0    0    0  0.00000000000E+00  0.00000000000E+00  0.12500000000E+03  0.12500000000E+03  0.00000000000E+00 0. -1.
         11   -1    0    0    0    0 -0.00000000000E+00 -0.00000000000E+00 -0.12500000000E+03  0.12500000000E+03  0.00000000000E+00 0.  1.
         24    1    1    2    0    0 -0.43710000570E+02 -0.68197205495E+02 -0.50954499885E+02  0.12500000000E+03  0.80419002446E+02 0.  0.
        -24    1    1    2    0    0  0.43710000570E+02  0.68197205495E+02  0.50954499885E+02  0.12500000000E+03  0.80419002446E+02 0.  0.
</event>
<event>
 4    1  0.1586888E-001  0.1250000E+03  0.7546771E-02  0.1126479E+00
        -11   -1    0    0    0    0  0.00000000000E+00  0.00000000000E+00  0.12500000000E+03  0.12500000000E+03  0.00000000000E+00 0.  1.
         11   -1    0    0    0    0 -0.00000000000E+00 -0.00000000000E+00 -0.12500000000E+03  0.12500000000E+03  0.00000000000E+00 0. -1.
         24    1    1    2    0    0  0.38170168715E+02 -0.60351864379E+02  0.63706159293E+02  0.12500000000E+03  0.80419002446E+02 0.  0.
        -24    1    1    2    0    0 -0.38170168715E+02  0.60351864379E+02 -0.63706159293E+02  0.12500000000E+03  0.80419002446E+02 0.  1.
</event>
<event>
 4    1  0.1586888E-001  0.1250000E+03  0.7546771E-02  0.1126479E+00
        -11   -1    0    0    0    0  0.00000000000E+00  0.00000000000E+00  0.12500000000E+03  0.12500000000E+03  0.00000000000E+00 0.  1.
         11   -1    0    0    0    0 -0.00000000000E+00 -0.00000000000E+00 -0.12500000000E+03  0.12500000000E+03  0.00000000000E+00 0. -1.
         24    1    1    2    0    0  0.21563841250E+02 -0.50810004140E+02  0.78173705780E+02  0.12500000000E+03  0.80419002446E+02 0.  1.
        -24    1    1    2    0    0 -0.21563841250E+02  0.50810004140E+02 -0.78173705780E+02  0.12500000000E+03  0.80419002446E+02 0. -1.
</event>
<event>
 4    1  0.1586888E-001  0.1250000E+03  0.7546771E-02  0.1126479E+00
        -11   -1    0    0    0    0  0.00000000000E+00  0.00000000000E+00  0.12500000000E+03  0.12500000000E+03  0.00000000000E+00 0.  1.
         11   -1    0    0    0    0 -0.00000000000E+00 -0.00000000000E+00 -0.12500000000E+03  0.12500000000E+03  0.00000000000E+00 0. -1.
         24    1    1    2    0    0 -0.48197020455E+01  0.71489748402E+02  0.63433196287E+02  0.12500000000E+03  0.80419002446E+02 0.  1.
        -24    1    1    2    0    0  0.48197020455E+01 -0.71489748402E+02 -0.63433196287E+02  0.12500000000E+03  0.80419002446E+02 0. -1.
</event>
<event>
 4    1  0.1586888E-001  0.1250000E+03  0.7546771E-02  0.1126479E+00
        -11   -1    0    0    0    0  0.00000000000E+00  0.00000000000E+00  0.12500000000E+03  0.12500000000E+03  0.00000000000E+00 0.  1.
         11   -1    0    0    0    0 -0.00000000000E+00 -0.00000000000E+00 -0.12500000000E+03  0.12500000000E+03  0.00000000000E+00 0. -1.
         24    1    1    2    0    0  0.15041578998E+02 -0.12518072052E+02  0.93674077625E+02  0.12500000000E+03  0.80419002446E+02 0.  1.
        -24    1    1    2    0    0 -0.15041578998E+02  0.12518072052E+02 -0.93674077625E+02  0.12500000000E+03  0.80419002446E+02 0. -1.
</event>
<event>
 4    1  0.1586888E-001  0.1250000E+03  0.7546771E-02  0.1126479E+00
        -11   -1    0    0    0    0  0.00000000000E+00  0.00000000000E+00  0.12500000000E+03  0.12500000000E+03  0.00000000000E+00 0.  1.
         11   -1    0    0    0    0 -0.00000000000E+00 -0.00000000000E+00 -0.12500000000E+03  0.12500000000E+03  0.00000000000E+00 0. -1.
         24    1    1    2    0    0 -0.51682731555E+01  0.83517172736E+02  0.46432260944E+02  0.12500000000E+03  0.80419002446E+02 0. -1.
        -24    1    1    2    0    0  0.51682731555E+01 -0.83517172736E+02 -0.46432260944E+02  0.12500000000E+03  0.80419002446E+02 0.  1.
</event>
<event>
 4    1  0.1586888E-001  0.1250000E+03  0.7546771E-02  0.1126479E+00
        -11   -1    0    0    0    0  0.00000000000E+00  0.00000000000E+00  0.12500000000E+03  0.12500000000E+03  0.00000000000E+00 0.  1.
         11   -1    0    0    0    0 -0.00000000000E+00 -0.00000000000E+00 -0.12500000000E+03  0.12500000000E+03  0.00000000000E+00 0. -1.
         24    1    1    2    0    0  0.48981351864E+02  0.53300610012E+02  0.62591182985E+02  0.12500000000E+03  0.80419002446E+02 0.  1.
        -24    1    1    2    0    0 -0.48981351864E+02 -0.53300610012E+02 -0.62591182985E+02  0.12500000000E+03  0.80419002446E+02 0. -1.
</event>
<event>
 4    1  0.1586888E-001  0.1250000E+03  0.7546771E-02  0.1126479E+00
        -11   -1    0    0    0    0  0.00000000000E+00  0.00000000000E+00  0.12500000000E+03  0.12500000000E+03  0.00000000000E+00 0.  1.
         11   -1    0    0    0    0 -0.00000000000E+00 -0.00000000000E+00 -0.12500000000E+03  0.12500000000E+03  0.00000000000E+00 0. -1.
         24    1    1    2    0    0  0.67521352873E+01  0.64016933964E+02  0.70809779554E+02  0.12500000000E+03  0.80419002446E+02 0. -1.
        -24    1    1    2    0    0 -0.67521352873E+01 -0.64016933964E+02 -0.70809779554E+02  0.12500000000E+03  0.80419002446E+02 0.  1.
</event>
<event>
 4    1  0.1586888E-001  0.1250000E+03  0.7546771E-02  0.1126479E+00
        -11   -1    0    0    0    0  0.00000000000E+00  0.00000000000E+00  0.12500000000E+03  0.12500000000E+03  0.00000000000E+00 0.  1.
         11   -1    0    0    0    0 -0.00000000000E+00 -0.00000000000E+00 -0.12500000000E+03  0.12500000000E+03  0.00000000000E+00 0. -1.
         24    1    1    2    0    0  0.56815524890E+02  0.49974543105E+02  0.58586049692E+02  0.12500000000E+03  0.80419002446E+02 0.  1.
        -24    1    1    2    0    0 -0.56815524890E+02 -0.49974543105E+02 -0.58586049692E+02  0.12500000000E+03  0.80419002446E+02 0. -1.
</event>
<event>
 4    1  0.1586888E-001  0.1250000E+03  0.7546771E-02  0.1126479E+00
        -11   -1    0    0    0    0  0.00000000000E+00  0.00000000000E+00  0.12500000000E+03  0.12500000000E+03  0.00000000000E+00 0.  1.
         11   -1    0    0    0    0 -0.00000000000E+00 -0.00000000000E+00 -0.12500000000E+03  0.12500000000E+03  0.00000000000E+00 0. -1.
         24    1    1    2    0    0 -0.14952283029E+02 -0.13882461325E+02  0.93495938657E+02  0.12500000000E+03  0.80419002446E+02 0.  1.
        -24    1    1    2    0    0  0.14952283029E+02  0.13882461325E+02 -0.93495938657E+02  0.12500000000E+03  0.80419002446E+02 0. -1.
</event>
<event>
 4    1  0.1586888E-001  0.1250000E+03  0.7546771E-02  0.1126479E+00
        -11   -1    0    0    0    0  0.00000000000E+00  0.00000000000E+00  0.12500000000E+03  0.12500000000E+03  0.00000000000E+00 0.  1.
         11   -1    0    0    0    0 -0.00000000000E+00 -0.00000000000E+00 -0.12500000000E+03  0.12500000000E+03  0.00000000000E+00 0. -1.
         24    1    1    2    0    0  0.64152203911E+02 -0.69753134234E+02  0.13295828052E+02  0.12500000000E+03  0.80419002446E+02 0. -1.
        -24    1    1    2    0    0 -0.64152203911E+02  0.69753134234E+02 -0.13295828052E+02  0.12500000000E+03  0.80419002446E+02 0.  1.
</event>
<event>
 4    1  0.1586888E-001  0.1250000E+03  0.7546771E-02  0.1126479E+00
        -11   -1    0    0    0    0  0.00000000000E+00  0.00000000000E+00  0.12500000000E+03  0.12500000000E+03  0.00000000000E+00 0.  1.
         11   -1    0    0    0    0 -0.00000000000E+00 -0.00000000000E+00 -0.12500000000E+03  0.12500000000E+03  0.00000000000E+00 0. -1.
         24    1    1    2    0    0  0.11771139791E+01 -0.53317831312E+02  0.79458211108E+02  0.12500000000E+03  0.80419002446E+02 0.  0.
        -24    1    1    2    0    0 -0.11771139791E+01  0.53317831312E+02 -0.79458211108E+02  0.12500000000E+03  0.80419002446E+02 0.  0.
</event>
<event>
 4    1  0.1586888E-001  0.1250000E+03  0.7546771E-02  0.1126479E+00
        -11   -1    0    0    0    0  0.00000000000E+00  0.00000000000E+00  0.12500000000E+03  0.12500000000E+03  0.00000000000E+00 0.  1.
         11   -1    0    0    0    0 -0.00000000000E+00 -0.00000000000E+00 -0.12500000000E+03  0.12500000000E+03  0.00000000000E+00 0. -1.
         24    1    1    2    0    0  0.32266214427E+02  0.49610095812E+02  0.75203150503E+02  0.12500000000E+03  0.80419002446E+02 0.  1.
        -24    1    1    2    0    0 -0.32266214427E+02 -0.49610095812E+02 -0.75203150503E+02  0.12500000000E+03  0.80419002446E+02 0. -1.
</event>
<event>
 4    1  0.1586888E-001  0.1250000E+03  0.7546771E-02  0.1126479E+00
        -11   -1    0    0    0    0  0.00000000000E+00  0.00000000000E+00  0.12500000000E+03  0.12500000000E+03  0.00000000000E+00 0.  1.
         11   -1    0    0    0    0 -0.00000000000E+00 -0.00000000000E+00 -0.12500000000E+03  0.12500000000E+03  0.00000000000E+00 0. -1.
         24    1    1    2    0    0  0.12850211715E+02  0.46598244254E+02  0.82590918006E+02  0.12500000000E+03  0.80419002446E+02 0.  1.
        -24    1    1    2    0    0 -0.12850211715E+02 -0.46598244254E+02 -0.82590918006E+02  0.12500000000E+03  0.80419002446E+02 0. -1.
</event>
<event>
 4    1  0.1586888E-001  0.1250000E+03  0.7546771E-02  0.1126479E+00
        -11   -1    0    0    0    0  0.00000000000E+00  0.00000000000E+00  0.12500000000E+03  0.12500000000E+03  0.00000000000E+00 0.  1.
         11   -1    0    0    0    0 -0.00000000000E+00 -0.00000000000E+00 -0.12500000000E+03  0.12500000000E+03  0.00000000000E+00 0. -1.
         24    1    1    2    0    0  0.33663335002E+02 -0.12758105025E+02  0.88666761970E+02  0.12500000000E+03  0.80419002446E+02 0.  1.
        -24    1    1    2    0    0 -0.33663335002E+02  0.12758105025E+02 -0.88666761970E+02  0.12500000000E+03  0.80419002446E+02 0. -1.
</event>
<event>
 4    1  0.1586888E-001  0.1250000E+03  0.7546771E-02  0.1126479E+00
        -11   -1    0    0    0    0  0.00000000000E+00  0.00000000000E+00  0.12500000000E+03  0.12500000000E+03  0.00000000000E+00 0.  1.
         11   -1    0    0    0    0 -0.00000000000E+00 -0.00000000000E+00 -0.12500000000E+03  0.12500000000E+03  0.00000000000E+00 0. -1.
         24    1    1    2    0    0 -0.25862990745E+02  0.38161212994E+02  0.83860667647E+02  0.12500000000E+03  0.80419002446E+02 0.  1.
        -24    1    1    2    0    0  0.25862990745E+02 -0.38161212994E+02 -0.83860667647E+02  0.12500000000E+03  0.80419002446E+02 0.  1.
</event>
<event>
 4    1  0.1586888E-001  0.1250000E+03  0.7546771E-02  0.1126479E+00
        -11   -1    0    0    0    0  0.00000000000E+00  0.00000000000E+00  0.12500000000E+03  0.12500000000E+03  0.00000000000E+00 0.  1.
         11   -1    0    0    0    0 -0.00000000000E+00 -0.00000000000E+00 -0.12500000000E+03  0.12500000000E+03  0.00000000000E+00 0. -1.
         24    1    1    2    0    0 -0.85387408400E+01  0.33951662364E+02  0.89062666551E+02  0.12500000000E+03  0.80419002446E+02 0.  1.
        -24    1    1    2    0    0  0.85387408400E+01 -0.33951662364E+02 -0.89062666551E+02  0.12500000000E+03  0.80419002446E+02 0. -1.
</event>
<event>
 4    1  0.1586888E-001  0.1250000E+03  0.7546771E-02  0.1126479E+00
        -11   -1    0    0    0    0  0.00000000000E+00  0.00000000000E+00  0.12500000000E+03  0.12500000000E+03  0.00000000000E+00 0.  1.
         11   -1    0    0    0    0 -0.00000000000E+00 -0.00000000000E+00 -0.12500000000E+03  0.12500000000E+03  0.00000000000E+00 0. -1.
         24    1    1    2    0    0 -0.80376672711E+02  0.34005599832E+02 -0.39255492732E+02  0.12500000000E+03  0.80419002446E+02 0. -1.
        -24    1    1    2    0    0  0.80376672711E+02 -0.34005599832E+02  0.39255492732E+02  0.12500000000E+03  0.80419002446E+02 0.  1.
</event>
<event>
 4    1  0.1586888E-001  0.1250000E+03  0.7546771E-02  0.1126479E+00
        -11   -1    0    0    0    0  0.00000000000E+00  0.00000000000E+00  0.12500000000E+03  0.12500000000E+03  0.00000000000E+00 0.  1.
         11   -1    0    0    0    0 -0.00000000000E+00 -0.00000000000E+00 -0.12500000000E+03  0.12500000000E+03  0.00000000000E+00 0. -1.
         24    1    1    2    0    0 -0.48742349367E+02 -0.58218000945E+02  0.58246302799E+02  0.12500000000E+03  0.80419002446E+02 0.  1.
        -24    1    1    2    0    0  0.48742349367E+02  0.58218000945E+02 -0.58246302799E+02  0.12500000000E+03  0.80419002446E+02 0. -1.
</event>
<event>
 4    1  0.1586888E-001  0.1250000E+03  0.7546771E-02  0.1126479E+00
        -11   -1    0    0    0    0  0.00000000000E+00  0.00000000000E+00  0.12500000000E+03  0.12500000000E+03  0.00000000000E+00 0.  1.
         11   -1    0    0    0    0 -0.00000000000E+00 -0.00000000000E+00 -0.12500000000E+03  0.12500000000E+03  0.00000000000E+00 0. -1.
         24    1    1    2    0    0 -0.12254799133E+02 -0.16813146248E+02  0.93407291242E+02  0.12500000000E+03  0.80419002446E+02 0.  1.
        -24    1    1    2    0    0  0.12254799133E+02  0.16813146248E+02 -0.93407291242E+02  0.12500000000E+03  0.80419002446E+02 0. -1.
</event>
<event>
 4    1  0.1586888E-001  0.1250000E+03  0.7546771E-02  0.1126479E+00
        -11   -1    0    0    0    0  0.00000000000E+00  0.00000000000E+00  0.12500000000E+03  0.12500000000E+03  0.00000000000E+00 0.  1.
         11   -1    0    0    0    0 -0.00000000000E+00 -0.00000000000E+00 -0.12500000000E+03  0.12500000000E+03  0.00000000000E+00 0. -1.
         24    1    1    2    0    0  0.80864108309E+02 -0.50569716870E+02 -0.78411586316E+01  0.12500000000E+03  0.80419002446E+02 0.  0.
        -24    1    1    2    0    0 -0.80864108309E+02  0.50569716870E+02  0.78411586316E+01  0.12500000000E+03  0.80419002446E+02 0.  0.
</event>
<event>
 4    1  0.1586888E-001  0.1250000E+03  0.7546771E-02  0.1126479E+00
        -11   -1    0    0    0    0  0.00000000000E+00  0.00000000000E+00  0.12500000000E+03  0.12500000000E+03  0.00000000000E+00 0.  1.
         11   -1    0    0    0    0 -0.00000000000E+00 -0.00000000000E+00 -0.12500000000E+03  0.12500000000E+03  0.00000000000E+00 0. -1.
         24    1    1    2    0    0  0.55582740772E+02  0.26308760762E+02  0.73322520968E+02  0.12500000000E+03  0.80419002446E+02 0.  1.
        -24    1    1    2    0    0 -0.55582740772E+02 -0.26308760762E+02 -0.73322520968E+02  0.12500000000E+03  0.80419002446E+02 0. -1.
</event>
<event>
 4    1  0.1586888E-001  0.1250000E+03  0.7546771E-02  0.1126479E+00
        -11   -1    0    0    0    0  0.00000000000E+00  0.00000000000E+00  0.12500000000E+03  0.12500000000E+03  0.00000000000E+00 0.  1.
         11   -1    0    0    0    0 -0.00000000000E+00 -0.00000000000E+00 -0.12500000000E+03  0.12500000000E+03  0.00000000000E+00 0. -1.
         24    1    1    2    0    0  0.20768559511E+02  0.68102867414E+02  0.63940991793E+02  0.12500000000E+03  0.80419002446E+02 0.  1.
        -24    1    1    2    0    0 -0.20768559511E+02 -0.68102867414E+02 -0.63940991793E+02  0.12500000000E+03  0.80419002446E+02 0. -1.
</event>
<event>
 4    1  0.1586888E-001  0.1250000E+03  0.7546771E-02  0.1126479E+00
        -11   -1    0    0    0    0  0.00000000000E+00  0.00000000000E+00  0.12500000000E+03  0.12500000000E+03  0.00000000000E+00 0.  1.
         11   -1    0    0    0    0 -0.00000000000E+00 -0.00000000000E+00 -0.12500000000E+03  0.12500000000E+03  0.00000000000E+00 0. -1.
         24    1    1    2    0    0  0.36211141615E+02  0.57113081977E+02  0.67709919035E+02  0.12500000000E+03  0.80419002446E+02 0.  1.
        -24    1    1    2    0    0 -0.36211141615E+02 -0.57113081977E+02 -0.67709919035E+02  0.12500000000E+03  0.80419002446E+02 0. -1.
</event>
<event>
 4    1  0.1586888E-001  0.1250000E+03  0.7546771E-02  0.1126479E+00
        -11   -1    0    0    0    0  0.00000000000E+00  0.00000000000E+00  0.12500000000E+03  0.12500000000E+03  0.00000000000E+00 0.  1.
         11   -1    0    0    0    0 -0.00000000000E+00 -0.00000000000E+00 -0.12500000000E+03  0.12500000000E+03  0.00000000000E+00 0. -1.
         24    1    1    2    0    0  0.43482159129E+02  0.79711181555E+02  0.30219421208E+02  0.12500000000E+03  0.80419002446E+02 0. -1.
        -24    1    1    2    0    0 -0.43482159129E+02 -0.79711181555E+02 -0.30219421208E+02  0.12500000000E+03  0.80419002446E+02 0.  1.
</event>
<event>
 4    1  0.1586888E-001  0.1250000E+03  0.7546771E-02  0.1126479E+00
        -11   -1    0    0    0    0  0.00000000000E+00  0.00000000000E+00  0.12500000000E+03  0.12500000000E+03  0.00000000000E+00 0.  1.
         11   -1    0    0    0    0 -0.00000000000E+00 -0.00000000000E+00 -0.12500000000E+03  0.12500000000E+03  0.00000000000E+00 0. -1.
         24    1    1    2    0    0 -0.10519912041E+02  0.32938790734E+02  0.89230889053E+02  0.12500000000E+03  0.80419002446E+02 0.  1.
        -24    1    1    2    0    0  0.10519912041E+02 -0.32938790734E+02 -0.89230889053E+02  0.12500000000E+03  0.80419002446E+02 0. -1.
</event>
<event>
 4    1  0.1586888E-001  0.1250000E+03  0.7546771E-02  0.1126479E+00
        -11   -1    0    0    0    0  0.00000000000E+00  0.00000000000E+00  0.12500000000E+03  0.12500000000E+03  0.00000000000E+00 0.  1.
         11   -1    0    0    0    0 -0.00000000000E+00 -0.00000000000E+00 -0.12500000000E+03  0.12500000000E+03  0.00000000000E+00 0. -1.
         24    1    1    2    0    0  0.27414185533E+02  0.89001001577E+01  0.91252587330E+02  0.12500000000E+03  0.80419002446E+02 0.  0.
        -24    1    1    2    0    0 -0.27414185533E+02 -0.89001001577E+01 -0.91252587330E+02  0.12500000000E+03  0.80419002446E+02 0. -1.
</event>
<event>
 4    1  0.1586888E-001  0.1250000E+03  0.7546771E-02  0.1126479E+00
        -11   -1    0    0    0    0  0.00000000000E+00  0.00000000000E+00  0.12500000000E+03  0.12500000000E+03  0.00000000000E+00 0.  1.
         11   -1    0    0    0    0 -0.00000000000E+00 -0.00000000000E+00 -0.12500000000E+03  0.12500000000E+03  0.00000000000E+00 0. -1.
         24    1    1    2    0    0  0.18735293783E+02 -0.83001680419E+01  0.93476628218E+02  0.12500000000E+03  0.80419002446E+02 0.  1.
        -24    1    1    2    0    0 -0.18735293783E+02  0.83001680419E+01 -0.93476628218E+02  0.12500000000E+03  0.80419002446E+02 0. -1.
</event>
<event>
 4    1  0.1586888E-001  0.1250000E+03  0.7546771E-02  0.1126479E+00
        -11   -1    0    0    0    0  0.00000000000E+00  0.00000000000E+00  0.12500000000E+03  0.12500000000E+03  0.00000000000E+00 0.  1.
         11   -1    0    0    0    0 -0.00000000000E+00 -0.00000000000E+00 -0.12500000000E+03  0.12500000000E+03  0.00000000000E+00 0. -1.
         24    1    1    2    0    0 -0.39477697410E+01  0.71434151776E+02  0.63555968404E+02  0.12500000000E+03  0.80419002446E+02 0. -1.
        -24    1    1    2    0    0  0.39477697410E+01 -0.71434151776E+02 -0.63555968404E+02  0.12500000000E+03  0.80419002446E+02 0.  1.
</event>
<event>
 4    1  0.1586888E-001  0.1250000E+03  0.7546771E-02  0.1126479E+00
        -11   -1    0    0    0    0  0.00000000000E+00  0.00000000000E+00  0.12500000000E+03  0.12500000000E+03  0.00000000000E+00 0.  1.
         11   -1    0    0    0    0 -0.00000000000E+00 -0.00000000000E+00 -0.12500000000E+03  0.12500000000E+03  0.00000000000E+00 0. -1.
         24    1    1    2    0    0  0.17806677631E+02 -0.58839989360E+02  0.73338679628E+02  0.12500000000E+03  0.80419002446E+02 0.  1.
        -24    1    1    2    0    0 -0.17806677631E+02  0.58839989360E+02 -0.73338679628E+02  0.12500000000E+03  0.80419002446E+02 0. -1.
</event>
<event>
 4    1  0.1586888E-001  0.1250000E+03  0.7546771E-02  0.1126479E+00
        -11   -1    0    0    0    0  0.00000000000E+00  0.00000000000E+00  0.12500000000E+03  0.12500000000E+03  0.00000000000E+00 0.  1.
         11   -1    0    0    0    0 -0.00000000000E+00 -0.00000000000E+00 -0.12500000000E+03  0.12500000000E+03  0.00000000000E+00 0. -1.
         24    1    1    2    0    0 -0.36097057887E+02  0.83835012742E+02  0.28748514677E+02  0.12500000000E+03  0.80419002446E+02 0.  1.
        -24    1    1    2    0    0  0.36097057887E+02 -0.83835012742E+02 -0.28748514677E+02  0.12500000000E+03  0.80419002446E+02 0. -1.
</event>
<event>
 4    1  0.1586888E-001  0.1250000E+03  0.7546771E-02  0.1126479E+00
        -11   -1    0    0    0    0  0.00000000000E+00  0.00000000000E+00  0.12500000000E+03  0.12500000000E+03  0.00000000000E+00 0.  1.
         11   -1    0    0    0    0 -0.00000000000E+00 -0.00000000000E+00 -0.12500000000E+03  0.12500000000E+03  0.00000000000E+00 0. -1.
         24    1    1    2    0    0  0.28261118899E+02  0.67312174931E+02 -0.61872161028E+02  0.12500000000E+03  0.80419002446E+02 0. -1.
        -24    1    1    2    0    0 -0.28261118899E+02 -0.67312174931E+02  0.61872161028E+02  0.12500000000E+03  0.80419002446E+02 0.  0.
</event>
<event>
 4    1  0.1586888E-001  0.1250000E+03  0.7546771E-02  0.1126479E+00
        -11   -1    0    0    0    0  0.00000000000E+00  0.00000000000E+00  0.12500000000E+03  0.12500000000E+03  0.00000000000E+00 0.  1.
         11   -1    0    0    0    0 -0.00000000000E+00 -0.00000000000E+00 -0.12500000000E+03  0.12500000000E+03  0.00000000000E+00 0. -1.
         24    1    1    2    0    0  0.75451114595E+02 -0.38675391128E+02  0.44374851810E+02  0.12500000000E+03  0.80419002446E+02 0.  0.
        -24    1    1    2    0    0 -0.75451114595E+02  0.38675391128E+02 -0.44374851810E+02  0.12500000000E+03  0.80419002446E+02 0.  1.
</event>
<event>
 4    1  0.1586888E-001  0.1250000E+03  0.7546771E-02  0.1126479E+00
        -11   -1    0    0    0    0  0.00000000000E+00  0.00000000000E+00  0.12500000000E+03  0.12500000000E+03  0.00000000000E+00 0.  1.
         11   -1    0    0    0    0 -0.00000000000E+00 -0.00000000000E+00 -0.12500000000E+03  0.12500000000E+03  0.00000000000E+00 0. -1.
         24    1    1    2    0    0  0.27280646725E+02  0.53945821405E+02  0.74184895449E+02  0.12500000000E+03  0.80419002446E+02 0. -1.
        -24    1    1    2    0    0 -0.27280646725E+02 -0.53945821405E+02 -0.74184895449E+02  0.12500000000E+03  0.80419002446E+02 0.  0.
</event>
<event>
 4    1  0.1586888E-001  0.1250000E+03  0.7546771E-02  0.1126479E+00
        -11   -1    0    0    0    0  0.00000000000E+00  0.00000000000E+00  0.12500000000E+03  0.12500000000E+03  0.00000000000E+00 0.  1.
         11   -1    0    0    0    0 -0.00000000000E+00 -0.00000000000E+00 -0.12500000000E+03  0.12500000000E+03  0.00000000000E+00 0. -1.
         24    1    1    2    0    0  0.54644571946E+02  0.58668892030E+02 -0.52246683248E+02  0.12500000000E+03  0.80419002446E+02 0. -1.
        -24    1    1    2    0    0 -0.54644571946E+02 -0.58668892030E+02  0.52246683248E+02  0.12500000000E+03  0.80419002446E+02 0.  1.
</event>
<event>
 4    1  0.1586888E-001  0.1250000E+03  0.7546771E-02  0.1126479E+00
        -11   -1    0    0    0    0  0.00000000000E+00  0.00000000000E+00  0.12500000000E+03  0.12500000000E+03  0.00000000000E+00 0.  1.
         11   -1    0    0    0    0 -0.00000000000E+00 -0.00000000000E+00 -0.12500000000E+03  0.12500000000E+03  0.00000000000E+00 0. -1.
         24    1    1    2    0    0 -0.40331346810E+02  0.11975199350E+02 -0.85952086133E+02  0.12500000000E+03  0.80419002446E+02 0. -1.
        -24    1    1    2    0    0  0.40331346810E+02 -0.11975199350E+02  0.85952086133E+02  0.12500000000E+03  0.80419002446E+02 0.  1.
</event>
<event>
 4    1  0.1586888E-001  0.1250000E+03  0.7546771E-02  0.1126479E+00
        -11   -1    0    0    0    0  0.00000000000E+00  0.00000000000E+00  0.12500000000E+03  0.12500000000E+03  0.00000000000E+00 0.  1.
         11   -1    0    0    0    0 -0.00000000000E+00 -0.00000000000E+00 -0.12500000000E+03  0.12500000000E+03  0.00000000000E+00 0. -1.
         24    1    1    2    0    0 -0.10190718113E+02  0.24095828672E+02  0.92050661869E+02  0.12500000000E+03  0.80419002446E+02 0.  1.
        -24    1    1    2    0    0  0.10190718113E+02 -0.24095828672E+02 -0.92050661869E+02  0.12500000000E+03  0.80419002446E+02 0. -1.
</event>
<event>
 4    1  0.1586888E-001  0.1250000E+03  0.7546771E-02  0.1126479E+00
        -11   -1    0    0    0    0  0.00000000000E+00  0.00000000000E+00  0.12500000000E+03  0.12500000000E+03  0.00000000000E+00 0.  1.
         11   -1    0    0    0    0 -0.00000000000E+00 -0.00000000000E+00 -0.12500000000E+03  0.12500000000E+03  0.00000000000E+00 0. -1.
         24    1    1    2    0    0  0.44292179807E+02 -0.46448133992E+02  0.70982798637E+02  0.12500000000E+03  0.80419002446E+02 0.  1.
        -24    1    1    2    0    0 -0.44292179807E+02  0.46448133992E+02 -0.70982798637E+02  0.12500000000E+03  0.80419002446E+02 0. -1.
</event>
<event>
 4    1  0.1586888E-001  0.1250000E+03  0.7546771E-02  0.1126479E+00
        -11   -1    0    0    0    0  0.00000000000E+00  0.00000000000E+00  0.12500000000E+03  0.12500000000E+03  0.00000000000E+00 0.  1.
         11   -1    0    0    0    0 -0.00000000000E+00 -0.00000000000E+00 -0.12500000000E+03  0.12500000000E+03  0.00000000000E+00 0. -1.
         24    1    1    2    0    0  0.14353940684E+02  0.92211074092E+02  0.21186463774E+02  0.12500000000E+03  0.80419002446E+02 0.  1.
        -24    1    1    2    0    0 -0.14353940684E+02 -0.92211074092E+02 -0.21186463774E+02  0.12500000000E+03  0.80419002446E+02 0. -1.
</event>
<event>
 4    1  0.1586888E-001  0.1250000E+03  0.7546771E-02  0.1126479E+00
        -11   -1    0    0    0    0  0.00000000000E+00  0.00000000000E+00  0.12500000000E+03  0.12500000000E+03  0.00000000000E+00 0.  1.
         11   -1    0    0    0    0 -0.00000000000E+00 -0.00000000000E+00 -0.12500000000E+03  0.12500000000E+03  0.00000000000E+00 0. -1.
         24    1    1    2    0    0 -0.11319661059E+02 -0.51987720925E+02  0.79541977548E+02  0.12500000000E+03  0.80419002446E+02 0.  1.
        -24    1    1    2    0    0  0.11319661059E+02  0.51987720925E+02 -0.79541977548E+02  0.12500000000E+03  0.80419002446E+02 0. -1.
</event>
<event>
 4    1  0.1586888E-001  0.1250000E+03  0.7546771E-02  0.1126479E+00
        -11   -1    0    0    0    0  0.00000000000E+00  0.00000000000E+00  0.12500000000E+03  0.12500000000E+03  0.00000000000E+00 0.  1.
         11   -1    0    0    0    0 -0.00000000000E+00 -0.00000000000E+00 -0.12500000000E+03  0.12500000000E+03  0.00000000000E+00 0. -1.
         24    1    1    2    0    0  0.32641326468E+01  0.66990301508E+01  0.95405725608E+02  0.12500000000E+03  0.80419002446E+02 0.  1.
        -24    1    1    2    0    0 -0.32641326468E+01 -0.66990301508E+01 -0.95405725608E+02  0.12500000000E+03  0.80419002446E+02 0.  0.
</event>
<event>
 4    1  0.1586888E-001  0.1250000E+03  0.7546771E-02  0.1126479E+00
        -11   -1    0    0    0    0  0.00000000000E+00  0.00000000000E+00  0.12500000000E+03  0.12500000000E+03  0.00000000000E+00 0.  1.
         11   -1    0    0    0    0 -0.00000000000E+00 -0.00000000000E+00 -0.12500000000E+03  0.12500000000E+03  0.00000000000E+00 0. -1.
         24    1    1    2    0    0 -0.79890805485E+02 -0.42523643966E+02  0.31096349438E+02  0.12500000000E+03  0.80419002446E+02 0.  1.
        -24    1    1    2    0    0  0.79890805485E+02  0.42523643966E+02 -0.31096349438E+02  0.12500000000E+03  0.80419002446E+02 0. -1.
</event>
<event>
 4    1  0.1586888E-001  0.1250000E+03  0.7546771E-02  0.1126479E+00
        -11   -1    0    0    0    0  0.00000000000E+00  0.00000000000E+00  0.12500000000E+03  0.12500000000E+03  0.00000000000E+00 0.  1.
         11   -1    0    0    0    0 -0.00000000000E+00 -0.00000000000E+00 -0.12500000000E+03  0.12500000000E+03  0.00000000000E+00 0. -1.
         24    1    1    2    0    0  0.30835290019E+02  0.54705196339E+02  0.72210182306E+02  0.12500000000E+03  0.80419002446E+02 0.  1.
        -24    1    1    2    0    0 -0.30835290019E+02 -0.54705196339E+02 -0.72210182306E+02  0.12500000000E+03  0.80419002446E+02 0. -1.
</event>
<event>
 4    1  0.1586888E-001  0.1250000E+03  0.7546771E-02  0.1126479E+00
        -11   -1    0    0    0    0  0.00000000000E+00  0.00000000000E+00  0.12500000000E+03  0.12500000000E+03  0.00000000000E+00 0.  1.
         11   -1    0    0    0    0 -0.00000000000E+00 -0.00000000000E+00 -0.12500000000E+03  0.12500000000E+03  0.00000000000E+00 0. -1.
         24    1    1    2    0    0 -0.73893593154E+02 -0.51532382889E+02  0.32279009436E+02  0.12500000000E+03  0.80419002446E+02 0.  1.
        -24    1    1    2    0    0  0.73893593154E+02  0.51532382889E+02 -0.32279009436E+02  0.12500000000E+03  0.80419002446E+02 0. -1.
</event>
<event>
 4    1  0.1586888E-001  0.1250000E+03  0.7546771E-02  0.1126479E+00
        -11   -1    0    0    0    0  0.00000000000E+00  0.00000000000E+00  0.12500000000E+03  0.12500000000E+03  0.00000000000E+00 0.  1.
         11   -1    0    0    0    0 -0.00000000000E+00 -0.00000000000E+00 -0.12500000000E+03  0.12500000000E+03  0.00000000000E+00 0. -1.
         24    1    1    2    0    0  0.26709456589E+02 -0.20096845496E+02  0.89668867370E+02  0.12500000000E+03  0.80419002446E+02 0.  1.
        -24    1    1    2    0    0 -0.26709456589E+02  0.20096845496E+02 -0.89668867370E+02  0.12500000000E+03  0.80419002446E+02 0. -1.
</event>
<event>
 4    1  0.1586888E-001  0.1250000E+03  0.7546771E-02  0.1126479E+00
        -11   -1    0    0    0    0  0.00000000000E+00  0.00000000000E+00  0.12500000000E+03  0.12500000000E+03  0.00000000000E+00 0.  1.
         11   -1    0    0    0    0 -0.00000000000E+00 -0.00000000000E+00 -0.12500000000E+03  0.12500000000E+03  0.00000000000E+00 0. -1.
         24    1    1    2    0    0 -0.92459996912E+02  0.76262624410E+01  0.23468556366E+02  0.12500000000E+03  0.80419002446E+02 0.  0.
        -24    1    1    2    0    0  0.92459996912E+02 -0.76262624410E+01 -0.23468556366E+02  0.12500000000E+03  0.80419002446E+02 0.  0.
</event>
<event>
 4    1  0.1586888E-001  0.1250000E+03  0.7546771E-02  0.1126479E+00
        -11   -1    0    0    0    0  0.00000000000E+00  0.00000000000E+00  0.12500000000E+03  0.12500000000E+03  0.00000000000E+00 0.  1.
         11   -1    0    0    0    0 -0.00000000000E+00 -0.00000000000E+00 -0.12500000000E+03  0.12500000000E+03  0.00000000000E+00 0. -1.
         24    1    1    2    0    0 -0.26400841258E+02 -0.54773077687E+02  0.73896478855E+02  0.12500000000E+03  0.80419002446E+02 0.  1.
        -24    1    1    2    0    0  0.26400841258E+02  0.54773077687E+02 -0.73896478855E+02  0.12500000000E+03  0.80419002446E+02 0. -1.
</event>
<event>
 4    1  0.1586888E-001  0.1250000E+03  0.7546771E-02  0.1126479E+00
        -11   -1    0    0    0    0  0.00000000000E+00  0.00000000000E+00  0.12500000000E+03  0.12500000000E+03  0.00000000000E+00 0.  1.
         11   -1    0    0    0    0 -0.00000000000E+00 -0.00000000000E+00 -0.12500000000E+03  0.12500000000E+03  0.00000000000E+00 0. -1.
         24    1    1    2    0    0 -0.24790779047E+02  0.73954086291E+02  0.55443614968E+02  0.12500000000E+03  0.80419002446E+02 0.  1.
        -24    1    1    2    0    0  0.24790779047E+02 -0.73954086291E+02 -0.55443614968E+02  0.12500000000E+03  0.80419002446E+02 0. -1.
</event>
<event>
 4    1  0.1586888E-001  0.1250000E+03  0.7546771E-02  0.1126479E+00
        -11   -1    0    0    0    0  0.00000000000E+00  0.00000000000E+00  0.12500000000E+03  0.12500000000E+03  0.00000000000E+00 0.  1.
         11   -1    0    0    0    0 -0.00000000000E+00 -0.00000000000E+00 -0.12500000000E+03  0.12500000000E+03  0.00000000000E+00 0. -1.
         24    1    1    2    0    0 -0.28843760975E+02  0.46045915791E+02  0.78775599886E+02  0.12500000000E+03  0.80419002446E+02 0.  1.
        -24    1    1    2    0    0  0.28843760975E+02 -0.46045915791E+02 -0.78775599886E+02  0.12500000000E+03  0.80419002446E+02 0. -1.
</event>
<event>
 4    1  0.1586888E-001  0.1250000E+03  0.7546771E-02  0.1126479E+00
        -11   -1    0    0    0    0  0.00000000000E+00  0.00000000000E+00  0.12500000000E+03  0.12500000000E+03  0.00000000000E+00 0.  1.
         11   -1    0    0    0    0 -0.00000000000E+00 -0.00000000000E+00 -0.12500000000E+03  0.12500000000E+03  0.00000000000E+00 0. -1.
         24    1    1    2    0    0  0.53861695532E+02 -0.13484145817E+02  0.77941514045E+02  0.12500000000E+03  0.80419002446E+02 0.  1.
        -24    1    1    2    0    0 -0.53861695532E+02  0.13484145817E+02 -0.77941514045E+02  0.12500000000E+03  0.80419002446E+02 0. -1.
</event>
<event>
 4    1  0.1586888E-001  0.1250000E+03  0.7546771E-02  0.1126479E+00
        -11   -1    0    0    0    0  0.00000000000E+00  0.00000000000E+00  0.12500000000E+03  0.12500000000E+03  0.00000000000E+00 0.  1.
         11   -1    0    0    0    0 -0.00000000000E+00 -0.00000000000E+00 -0.12500000000E+03  0.12500000000E+03  0.00000000000E+00 0. -1.
         24    1    1    2    0    0  0.42770212066E+02  0.22964853513E+02  0.82468833559E+02  0.12500000000E+03  0.80419002446E+02 0.  1.
        -24    1    1    2    0    0 -0.42770212066E+02 -0.22964853513E+02 -0.82468833559E+02  0.12500000000E+03  0.80419002446E+02 0. -1.
</event>
<event>
 4    1  0.1586888E-001  0.1250000E+03  0.7546771E-02  0.1126479E+00
        -11   -1    0    0    0    0  0.00000000000E+00  0.00000000000E+00  0.12500000000E+03  0.12500000000E+03  0.00000000000E+00 0.  1.
         11   -1    0    0    0    0 -0.00000000000E+00 -0.00000000000E+00 -0.12500000000E+03  0.12500000000E+03  0.00000000000E+00 0. -1.
         24    1    1    2    0    0 -0.64499331310E+02 -0.44637018256E+02  0.54819311446E+02  0.12500000000E+03  0.80419002446E+02 0.  0.
        -24    1    1    2    0    0  0.64499331310E+02  0.44637018256E+02 -0.54819311446E+02  0.12500000000E+03  0.80419002446E+02 0. -1.
</event>
<event>
 4    1  0.1586888E-001  0.1250000E+03  0.7546771E-02  0.1126479E+00
        -11   -1    0    0    0    0  0.00000000000E+00  0.00000000000E+00  0.12500000000E+03  0.12500000000E+03  0.00000000000E+00 0.  1.
         11   -1    0    0    0    0 -0.00000000000E+00 -0.00000000000E+00 -0.12500000000E+03  0.12500000000E+03  0.00000000000E+00 0. -1.
         24    1    1    2    0    0  0.36955174959E+01 -0.52851097841E+02  0.79692462963E+02  0.12500000000E+03  0.80419002446E+02 0.  1.
        -24    1    1    2    0    0 -0.36955174959E+01  0.52851097841E+02 -0.79692462963E+02  0.12500000000E+03  0.80419002446E+02 0. -1.
</event>
<event>
 4    1  0.1586888E-001  0.1250000E+03  0.7546771E-02  0.1126479E+00
        -11   -1    0    0    0    0  0.00000000000E+00  0.00000000000E+00  0.12500000000E+03  0.12500000000E+03  0.00000000000E+00 0.  1.
         11   -1    0    0    0    0 -0.00000000000E+00 -0.00000000000E+00 -0.12500000000E+03  0.12500000000E+03  0.00000000000E+00 0. -1.
         24    1    1    2    0    0 -0.73181033482E+02 -0.23726005319E+02 -0.56915701312E+02  0.12500000000E+03  0.80419002446E+02 0.  0.
        -24    1    1    2    0    0  0.73181033482E+02  0.23726005319E+02  0.56915701312E+02  0.12500000000E+03  0.80419002446E+02 0. -1.
</event>
<event>
 4    1  0.1586888E-001  0.1250000E+03  0.7546771E-02  0.1126479E+00
        -11   -1    0    0    0    0  0.00000000000E+00  0.00000000000E+00  0.12500000000E+03  0.12500000000E+03  0.00000000000E+00 0.  1.
         11   -1    0    0    0    0 -0.00000000000E+00 -0.00000000000E+00 -0.12500000000E+03  0.12500000000E+03  0.00000000000E+00 0. -1.
         24    1    1    2    0    0  0.69523421477E+02 -0.65007073310E+02 -0.99175768894E+01  0.12500000000E+03  0.80419002446E+02 0. -1.
        -24    1    1    2    0    0 -0.69523421477E+02  0.65007073310E+02  0.99175768894E+01  0.12500000000E+03  0.80419002446E+02 0.  1.
</event>
<event>
 4    1  0.1586888E-001  0.1250000E+03  0.7546771E-02  0.1126479E+00
        -11   -1    0    0    0    0  0.00000000000E+00  0.00000000000E+00  0.12500000000E+03  0.12500000000E+03  0.00000000000E+00 0.  1.
         11   -1    0    0    0    0 -0.00000000000E+00 -0.00000000000E+00 -0.12500000000E+03  0.12500000000E+03  0.00000000000E+00 0. -1.
         24    1    1    2    0    0  0.23235396420E+02  0.75179846827E+01  0.92527727224E+02  0.12500000000E+03  0.80419002446E+02 0.  1.
        -24    1    1    2    0    0 -0.23235396420E+02 -0.75179846827E+01 -0.92527727224E+02  0.12500000000E+03  0.80419002446E+02 0. -1.
</event>
<event>
 4    1  0.1586888E-001  0.1250000E+03  0.7546771E-02  0.1126479E+00
        -11   -1    0    0    0    0  0.00000000000E+00  0.00000000000E+00  0.12500000000E+03  0.12500000000E+03  0.00000000000E+00 0.  1.
         11   -1    0    0    0    0 -0.00000000000E+00 -0.00000000000E+00 -0.12500000000E+03  0.12500000000E+03  0.00000000000E+00 0. -1.
         24    1    1    2    0    0  0.84532419041E+02  0.44854800936E+02  0.31782029697E+00  0.12500000000E+03  0.80419002446E+02 0.  1.
        -24    1    1    2    0    0 -0.84532419041E+02 -0.44854800936E+02 -0.31782029697E+00  0.12500000000E+03  0.80419002446E+02 0.  0.
</event>
<event>
 4    1  0.1586888E-001  0.1250000E+03  0.7546771E-02  0.1126479E+00
        -11   -1    0    0    0    0  0.00000000000E+00  0.00000000000E+00  0.12500000000E+03  0.12500000000E+03  0.00000000000E+00 0.  1.
         11   -1    0    0    0    0 -0.00000000000E+00 -0.00000000000E+00 -0.12500000000E+03  0.12500000000E+03  0.00000000000E+00 0. -1.
         24    1    1    2    0    0 -0.19213364348E+02  0.66934028092E+01  0.93508443656E+02  0.12500000000E+03  0.80419002446E+02 0.  1.
        -24    1    1    2    0    0  0.19213364348E+02 -0.66934028092E+01 -0.93508443656E+02  0.12500000000E+03  0.80419002446E+02 0. -1.
</event>
<event>
 4    1  0.1586888E-001  0.1250000E+03  0.7546771E-02  0.1126479E+00
        -11   -1    0    0    0    0  0.00000000000E+00  0.00000000000E+00  0.12500000000E+03  0.12500000000E+03  0.00000000000E+00 0.  1.
         11   -1    0    0    0    0 -0.00000000000E+00 -0.00000000000E+00 -0.12500000000E+03  0.12500000000E+03  0.00000000000E+00 0. -1.
         24    1    1    2    0    0 -0.32184405891E+02 -0.76155379721E+02  0.48190312332E+02  0.12500000000E+03  0.80419002446E+02 0.  1.
        -24    1    1    2    0    0  0.32184405891E+02  0.76155379721E+02 -0.48190312332E+02  0.12500000000E+03  0.80419002446E+02 0. -1.
</event>
<event>
 4    1  0.1586888E-001  0.1250000E+03  0.7546771E-02  0.1126479E+00
        -11   -1    0    0    0    0  0.00000000000E+00  0.00000000000E+00  0.12500000000E+03  0.12500000000E+03  0.00000000000E+00 0.  1.
         11   -1    0    0    0    0 -0.00000000000E+00 -0.00000000000E+00 -0.12500000000E+03  0.12500000000E+03  0.00000000000E+00 0. -1.
         24    1    1    2    0    0 -0.96373884795E-01 -0.24623887891E+02  0.92473990413E+02  0.12500000000E+03  0.80419002446E+02 0.  1.
        -24    1    1    2    0    0  0.96373884795E-01  0.24623887891E+02 -0.92473990413E+02  0.12500000000E+03  0.80419002446E+02 0. -1.
</event>
<event>
 4    1  0.1586888E-001  0.1250000E+03  0.7546771E-02  0.1126479E+00
        -11   -1    0    0    0    0  0.00000000000E+00  0.00000000000E+00  0.12500000000E+03  0.12500000000E+03  0.00000000000E+00 0.  1.
         11   -1    0    0    0    0 -0.00000000000E+00 -0.00000000000E+00 -0.12500000000E+03  0.12500000000E+03  0.00000000000E+00 0. -1.
         24    1    1    2    0    0  0.22870865850E+02 -0.26100820322E+02  0.89182143501E+02  0.12500000000E+03  0.80419002446E+02 0.  1.
        -24    1    1    2    0    0 -0.22870865850E+02  0.26100820322E+02 -0.89182143501E+02  0.12500000000E+03  0.80419002446E+02 0. -1.
</event>
<event>
 4    1  0.1586888E-001  0.1250000E+03  0.7546771E-02  0.1126479E+00
        -11   -1    0    0    0    0  0.00000000000E+00  0.00000000000E+00  0.12500000000E+03  0.12500000000E+03  0.00000000000E+00 0.  1.
         11   -1    0    0    0    0 -0.00000000000E+00 -0.00000000000E+00 -0.12500000000E+03  0.12500000000E+03  0.00000000000E+00 0. -1.
         24    1    1    2    0    0  0.37206795248E+02  0.18967546024E+02  0.86102674934E+02  0.12500000000E+03  0.80419002446E+02 0.  1.
        -24    1    1    2    0    0 -0.37206795248E+02 -0.18967546024E+02 -0.86102674934E+02  0.12500000000E+03  0.80419002446E+02 0. -1.
</event>
<event>
 4    1  0.1586888E-001  0.1250000E+03  0.7546771E-02  0.1126479E+00
        -11   -1    0    0    0    0  0.00000000000E+00  0.00000000000E+00  0.12500000000E+03  0.12500000000E+03  0.00000000000E+00 0.  1.
         11   -1    0    0    0    0 -0.00000000000E+00 -0.00000000000E+00 -0.12500000000E+03  0.12500000000E+03  0.00000000000E+00 0. -1.
         24    1    1    2    0    0  0.83884749461E+02 -0.13361399511E+02  0.44075002627E+02  0.12500000000E+03  0.80419002446E+02 0. -1.
        -24    1    1    2    0    0 -0.83884749461E+02  0.13361399511E+02 -0.44075002627E+02  0.12500000000E+03  0.80419002446E+02 0.  1.
</event>
<event>
 4    1  0.1586888E-001  0.1250000E+03  0.7546771E-02  0.1126479E+00
        -11   -1    0    0    0    0  0.00000000000E+00  0.00000000000E+00  0.12500000000E+03  0.12500000000E+03  0.00000000000E+00 0.  1.
         11   -1    0    0    0    0 -0.00000000000E+00 -0.00000000000E+00 -0.12500000000E+03  0.12500000000E+03  0.00000000000E+00 0. -1.
         24    1    1    2    0    0  0.14282482966E+02  0.12722717467E+02  0.93765277082E+02  0.12500000000E+03  0.80419002446E+02 0.  1.
        -24    1    1    2    0    0 -0.14282482966E+02 -0.12722717467E+02 -0.93765277082E+02  0.12500000000E+03  0.80419002446E+02 0. -1.
</event>
<event>
 4    1  0.1586888E-001  0.1250000E+03  0.7546771E-02  0.1126479E+00
        -11   -1    0    0    0    0  0.00000000000E+00  0.00000000000E+00  0.12500000000E+03  0.12500000000E+03  0.00000000000E+00 0.  1.
         11   -1    0    0    0    0 -0.00000000000E+00 -0.00000000000E+00 -0.12500000000E+03  0.12500000000E+03  0.00000000000E+00 0. -1.
         24    1    1    2    0    0  0.48593672828E+02 -0.82255091064E+02  0.55262103388E+01  0.12500000000E+03  0.80419002446E+02 0.  0.
        -24    1    1    2    0    0 -0.48593672828E+02  0.82255091064E+02 -0.55262103388E+01  0.12500000000E+03  0.80419002446E+02 0. -1.
</event>
<event>
 4    1  0.1586888E-001  0.1250000E+03  0.7546771E-02  0.1126479E+00
        -11   -1    0    0    0    0  0.00000000000E+00  0.00000000000E+00  0.12500000000E+03  0.12500000000E+03  0.00000000000E+00 0.  1.
         11   -1    0    0    0    0 -0.00000000000E+00 -0.00000000000E+00 -0.12500000000E+03  0.12500000000E+03  0.00000000000E+00 0. -1.
         24    1    1    2    0    0  0.44599809808E+02  0.84009063243E+02 -0.10541266707E+02  0.12500000000E+03  0.80419002446E+02 0.  0.
        -24    1    1    2    0    0 -0.44599809808E+02 -0.84009063243E+02  0.10541266707E+02  0.12500000000E+03  0.80419002446E+02 0.  0.
</event>
<event>
 4    1  0.1586888E-001  0.1250000E+03  0.7546771E-02  0.1126479E+00
        -11   -1    0    0    0    0  0.00000000000E+00  0.00000000000E+00  0.12500000000E+03  0.12500000000E+03  0.00000000000E+00 0.  1.
         11   -1    0    0    0    0 -0.00000000000E+00 -0.00000000000E+00 -0.12500000000E+03  0.12500000000E+03  0.00000000000E+00 0. -1.
         24    1    1    2    0    0  0.96337639857E+01 -0.61404652650E+02  0.72762925106E+02  0.12500000000E+03  0.80419002446E+02 0.  1.
        -24    1    1    2    0    0 -0.96337639857E+01  0.61404652650E+02 -0.72762925106E+02  0.12500000000E+03  0.80419002446E+02 0. -1.
</event>
<event>
 4    1  0.1586888E-001  0.1250000E+03  0.7546771E-02  0.1126479E+00
        -11   -1    0    0    0    0  0.00000000000E+00  0.00000000000E+00  0.12500000000E+03  0.12500000000E+03  0.00000000000E+00 0.  1.
         11   -1    0    0    0    0 -0.00000000000E+00 -0.00000000000E+00 -0.12500000000E+03  0.12500000000E+03  0.00000000000E+00 0. -1.
         24    1    1    2    0    0  0.52542339396E+02  0.43684950998E+01  0.79862399582E+02  0.12500000000E+03  0.80419002446E+02 0.  1.
        -24    1    1    2    0    0 -0.52542339396E+02 -0.43684950998E+01 -0.79862399582E+02  0.12500000000E+03  0.80419002446E+02 0. -1.
</event>
<event>
 4    1  0.1586888E-001  0.1250000E+03  0.7546771E-02  0.1126479E+00
        -11   -1    0    0    0    0  0.00000000000E+00  0.00000000000E+00  0.12500000000E+03  0.12500000000E+03  0.00000000000E+00 0.  1.
         11   -1    0    0    0    0 -0.00000000000E+00 -0.00000000000E+00 -0.12500000000E+03  0.12500000000E+03  0.00000000000E+00 0. -1.
         24    1    1    2    0    0 -0.60475379054E+02  0.15104425995E+02  0.72611079659E+02  0.12500000000E+03  0.80419002446E+02 0.  1.
        -24    1    1    2    0    0  0.60475379054E+02 -0.15104425995E+02 -0.72611079659E+02  0.12500000000E+03  0.80419002446E+02 0. -1.
</event>
<event>
 4    1  0.1586888E-001  0.1250000E+03  0.7546771E-02  0.1126479E+00
        -11   -1    0    0    0    0  0.00000000000E+00  0.00000000000E+00  0.12500000000E+03  0.12500000000E+03  0.00000000000E+00 0.  1.
         11   -1    0    0    0    0 -0.00000000000E+00 -0.00000000000E+00 -0.12500000000E+03  0.12500000000E+03  0.00000000000E+00 0. -1.
         24    1    1    2    0    0 -0.57020755910E+02  0.13978478160E+02  0.75571288129E+02  0.12500000000E+03  0.80419002446E+02 0.  1.
        -24    1    1    2    0    0  0.57020755910E+02 -0.13978478160E+02 -0.75571288129E+02  0.12500000000E+03  0.80419002446E+02 0. -1.
</event>
<event>
 4    1  0.1586888E-001  0.1250000E+03  0.7546771E-02  0.1126479E+00
        -11   -1    0    0    0    0  0.00000000000E+00  0.00000000000E+00  0.12500000000E+03  0.12500000000E+03  0.00000000000E+00 0.  1.
         11   -1    0    0    0    0 -0.00000000000E+00 -0.00000000000E+00 -0.12500000000E+03  0.12500000000E+03  0.00000000000E+00 0. -1.
         24    1    1    2    0    0  0.89269133705E+02  0.18835888952E+02 -0.28879319600E+02  0.12500000000E+03  0.80419002446E+02 0. -1.
        -24    1    1    2    0    0 -0.89269133705E+02 -0.18835888952E+02  0.28879319600E+02  0.12500000000E+03  0.80419002446E+02 0.  1.
</event>
<event>
 4    1  0.1586888E-001  0.1250000E+03  0.7546771E-02  0.1126479E+00
        -11   -1    0    0    0    0  0.00000000000E+00  0.00000000000E+00  0.12500000000E+03  0.12500000000E+03  0.00000000000E+00 0.  1.
         11   -1    0    0    0    0 -0.00000000000E+00 -0.00000000000E+00 -0.12500000000E+03  0.12500000000E+03  0.00000000000E+00 0. -1.
         24    1    1    2    0    0 -0.16580037195E+02 -0.18942688840E+02  0.92325841192E+02  0.12500000000E+03  0.80419002446E+02 0.  1.
        -24    1    1    2    0    0  0.16580037195E+02  0.18942688840E+02 -0.92325841192E+02  0.12500000000E+03  0.80419002446E+02 0. -1.
</event>
<event>
 4    1  0.1586888E-001  0.1250000E+03  0.7546771E-02  0.1126479E+00
        -11   -1    0    0    0    0  0.00000000000E+00  0.00000000000E+00  0.12500000000E+03  0.12500000000E+03  0.00000000000E+00 0.  1.
         11   -1    0    0    0    0 -0.00000000000E+00 -0.00000000000E+00 -0.12500000000E+03  0.12500000000E+03  0.00000000000E+00 0. -1.
         24    1    1    2    0    0 -0.48910064688E+02 -0.47824376890E+02  0.66920987687E+02  0.12500000000E+03  0.80419002446E+02 0.  1.
        -24    1    1    2    0    0  0.48910064688E+02  0.47824376890E+02 -0.66920987687E+02  0.12500000000E+03  0.80419002446E+02 0. -1.
</event>
<event>
 4    1  0.1586888E-001  0.1250000E+03  0.7546771E-02  0.1126479E+00
        -11   -1    0    0    0    0  0.00000000000E+00  0.00000000000E+00  0.12500000000E+03  0.12500000000E+03  0.00000000000E+00 0.  1.
         11   -1    0    0    0    0 -0.00000000000E+00 -0.00000000000E+00 -0.12500000000E+03  0.12500000000E+03  0.00000000000E+00 0. -1.
         24    1    1    2    0    0 -0.21873599228E+02  0.91941076563E+02  0.15038887689E+02  0.12500000000E+03  0.80419002446E+02 0.  1.
        -24    1    1    2    0    0  0.21873599228E+02 -0.91941076563E+02 -0.15038887689E+02  0.12500000000E+03  0.80419002446E+02 0. -1.
</event>
<event>
 4    1  0.1586888E-001  0.1250000E+03  0.7546771E-02  0.1126479E+00
        -11   -1    0    0    0    0  0.00000000000E+00  0.00000000000E+00  0.12500000000E+03  0.12500000000E+03  0.00000000000E+00 0.  1.
         11   -1    0    0    0    0 -0.00000000000E+00 -0.00000000000E+00 -0.12500000000E+03  0.12500000000E+03  0.00000000000E+00 0. -1.
         24    1    1    2    0    0 -0.57673551097E+01  0.31895258783E+02  0.90040069568E+02  0.12500000000E+03  0.80419002446E+02 0.  1.
        -24    1    1    2    0    0  0.57673551097E+01 -0.31895258783E+02 -0.90040069568E+02  0.12500000000E+03  0.80419002446E+02 0. -1.
</event>
<event>
 4    1  0.1586888E-001  0.1250000E+03  0.7546771E-02  0.1126479E+00
        -11   -1    0    0    0    0  0.00000000000E+00  0.00000000000E+00  0.12500000000E+03  0.12500000000E+03  0.00000000000E+00 0.  1.
         11   -1    0    0    0    0 -0.00000000000E+00 -0.00000000000E+00 -0.12500000000E+03  0.12500000000E+03  0.00000000000E+00 0. -1.
         24    1    1    2    0    0  0.13377193699E+02  0.53972924726E+02  0.77882977157E+02  0.12500000000E+03  0.80419002446E+02 0.  1.
        -24    1    1    2    0    0 -0.13377193699E+02 -0.53972924726E+02 -0.77882977157E+02  0.12500000000E+03  0.80419002446E+02 0. -1.
</event>
<event>
 4    1  0.1586888E-001  0.1250000E+03  0.7546771E-02  0.1126479E+00
        -11   -1    0    0    0    0  0.00000000000E+00  0.00000000000E+00  0.12500000000E+03  0.12500000000E+03  0.00000000000E+00 0.  1.
         11   -1    0    0    0    0 -0.00000000000E+00 -0.00000000000E+00 -0.12500000000E+03  0.12500000000E+03  0.00000000000E+00 0. -1.
         24    1    1    2    0    0  0.32285033181E+02 -0.84778538836E+02  0.30464077714E+02  0.12500000000E+03  0.80419002446E+02 0.  1.
        -24    1    1    2    0    0 -0.32285033181E+02  0.84778538836E+02 -0.30464077714E+02  0.12500000000E+03  0.80419002446E+02 0. -1.
</event>
<event>
 4    1  0.1586888E-001  0.1250000E+03  0.7546771E-02  0.1126479E+00
        -11   -1    0    0    0    0  0.00000000000E+00  0.00000000000E+00  0.12500000000E+03  0.12500000000E+03  0.00000000000E+00 0.  1.
         11   -1    0    0    0    0 -0.00000000000E+00 -0.00000000000E+00 -0.12500000000E+03  0.12500000000E+03  0.00000000000E+00 0. -1.
         24    1    1    2    0    0 -0.40188429628E+02 -0.27508865846E+02  0.82376795698E+02  0.12500000000E+03  0.80419002446E+02 0.  1.
        -24    1    1    2    0    0  0.40188429628E+02  0.27508865846E+02 -0.82376795698E+02  0.12500000000E+03  0.80419002446E+02 0. -1.
</event>
<event>
 4    1  0.1586888E-001  0.1250000E+03  0.7546771E-02  0.1126479E+00
        -11   -1    0    0    0    0  0.00000000000E+00  0.00000000000E+00  0.12500000000E+03  0.12500000000E+03  0.00000000000E+00 0.  1.
         11   -1    0    0    0    0 -0.00000000000E+00 -0.00000000000E+00 -0.12500000000E+03  0.12500000000E+03  0.00000000000E+00 0. -1.
         24    1    1    2    0    0  0.18939007932E+02 -0.56137691972E+02  0.75150898625E+02  0.12500000000E+03  0.80419002446E+02 0. -1.
        -24    1    1    2    0    0 -0.18939007932E+02  0.56137691972E+02 -0.75150898625E+02  0.12500000000E+03  0.80419002446E+02 0. -1.
</event>
<event>
 4    1  0.1586888E-001  0.1250000E+03  0.7546771E-02  0.1126479E+00
        -11   -1    0    0    0    0  0.00000000000E+00  0.00000000000E+00  0.12500000000E+03  0.12500000000E+03  0.00000000000E+00 0.  1.
         11   -1    0    0    0    0 -0.00000000000E+00 -0.00000000000E+00 -0.12500000000E+03  0.12500000000E+03  0.00000000000E+00 0. -1.
         24    1    1    2    0    0  0.16448010242E+02  0.51829882059E+02  0.78745859132E+02  0.12500000000E+03  0.80419002446E+02 0.  1.
        -24    1    1    2    0    0 -0.16448010242E+02 -0.51829882059E+02 -0.78745859132E+02  0.12500000000E+03  0.80419002446E+02 0. -1.
</event>
<event>
 4    1  0.1586888E-001  0.1250000E+03  0.7546771E-02  0.1126479E+00
        -11   -1    0    0    0    0  0.00000000000E+00  0.00000000000E+00  0.12500000000E+03  0.12500000000E+03  0.00000000000E+00 0.  1.
         11   -1    0    0    0    0 -0.00000000000E+00 -0.00000000000E+00 -0.12500000000E+03  0.12500000000E+03  0.00000000000E+00 0. -1.
         24    1    1    2    0    0  0.74379415723E+02 -0.50633666133E+02  0.32584020873E+02  0.12500000000E+03  0.80419002446E+02 0. -1.
        -24    1    1    2    0    0 -0.74379415723E+02  0.50633666133E+02 -0.32584020873E+02  0.12500000000E+03  0.80419002446E+02 0.  0.
</event>
<event>
 4    1  0.1586888E-001  0.1250000E+03  0.7546771E-02  0.1126479E+00
        -11   -1    0    0    0    0  0.00000000000E+00  0.00000000000E+00  0.12500000000E+03  0.12500000000E+03  0.00000000000E+00 0.  1.
         11   -1    0    0    0    0 -0.00000000000E+00 -0.00000000000E+00 -0.12500000000E+03  0.12500000000E+03  0.00000000000E+00 0. -1.
         24    1    1    2    0    0  0.16498290528E+02  0.26602964492E+02  0.90431591468E+02  0.12500000000E+03  0.80419002446E+02 0.  0.
        -24    1    1    2    0    0 -0.16498290528E+02 -0.26602964492E+02 -0.90431591468E+02  0.12500000000E+03  0.80419002446E+02 0.  0.
</event>
<event>
 4    1  0.1586888E-001  0.1250000E+03  0.7546771E-02  0.1126479E+00
        -11   -1    0    0    0    0  0.00000000000E+00  0.00000000000E+00  0.12500000000E+03  0.12500000000E+03  0.00000000000E+00 0.  1.
         11   -1    0    0    0    0 -0.00000000000E+00 -0.00000000000E+00 -0.12500000000E+03  0.12500000000E+03  0.00000000000E+00 0. -1.
         24    1    1    2    0    0  0.43462036647E+02  0.24111377853E+02  0.81776994773E+02  0.12500000000E+03  0.80419002446E+02 0.  1.
        -24    1    1    2    0    0 -0.43462036647E+02 -0.24111377853E+02 -0.81776994773E+02  0.12500000000E+03  0.80419002446E+02 0. -1.
</event>
<event>
 4    1  0.1586888E-001  0.1250000E+03  0.7546771E-02  0.1126479E+00
        -11   -1    0    0    0    0  0.00000000000E+00  0.00000000000E+00  0.12500000000E+03  0.12500000000E+03  0.00000000000E+00 0.  1.
         11   -1    0    0    0    0 -0.00000000000E+00 -0.00000000000E+00 -0.12500000000E+03  0.12500000000E+03  0.00000000000E+00 0. -1.
         24    1    1    2    0    0 -0.20733291324E+02 -0.71711531821E+02  0.59877966569E+02  0.12500000000E+03  0.80419002446E+02 0.  0.
        -24    1    1    2    0    0  0.20733291324E+02  0.71711531821E+02 -0.59877966569E+02  0.12500000000E+03  0.80419002446E+02 0. -1.
</event>
<event>
 4    1  0.1586888E-001  0.1250000E+03  0.7546771E-02  0.1126479E+00
        -11   -1    0    0    0    0  0.00000000000E+00  0.00000000000E+00  0.12500000000E+03  0.12500000000E+03  0.00000000000E+00 0.  1.
         11   -1    0    0    0    0 -0.00000000000E+00 -0.00000000000E+00 -0.12500000000E+03  0.12500000000E+03  0.00000000000E+00 0. -1.
         24    1    1    2    0    0  0.99872213744E+01  0.46227454282E+02  0.83192919924E+02  0.12500000000E+03  0.80419002446E+02 0.  1.
        -24    1    1    2    0    0 -0.99872213744E+01 -0.46227454282E+02 -0.83192919924E+02  0.12500000000E+03  0.80419002446E+02 0. -1.
</event>
<event>
 4    1  0.1586888E-001  0.1250000E+03  0.7546771E-02  0.1126479E+00
        -11   -1    0    0    0    0  0.00000000000E+00  0.00000000000E+00  0.12500000000E+03  0.12500000000E+03  0.00000000000E+00 0.  1.
         11   -1    0    0    0    0 -0.00000000000E+00 -0.00000000000E+00 -0.12500000000E+03  0.12500000000E+03  0.00000000000E+00 0. -1.
         24    1    1    2    0    0  0.63920037155E+02  0.40887981325E+02  0.58311112825E+02  0.12500000000E+03  0.80419002446E+02 0.  1.
        -24    1    1    2    0    0 -0.63920037155E+02 -0.40887981325E+02 -0.58311112825E+02  0.12500000000E+03  0.80419002446E+02 0.  0.
</event>
<event>
 4    1  0.1586888E-001  0.1250000E+03  0.7546771E-02  0.1126479E+00
        -11   -1    0    0    0    0  0.00000000000E+00  0.00000000000E+00  0.12500000000E+03  0.12500000000E+03  0.00000000000E+00 0.  1.
         11   -1    0    0    0    0 -0.00000000000E+00 -0.00000000000E+00 -0.12500000000E+03  0.12500000000E+03  0.00000000000E+00 0. -1.
         24    1    1    2    0    0  0.35690175174E+02 -0.11861283987E+02  0.87996053229E+02  0.12500000000E+03  0.80419002446E+02 0.  1.
        -24    1    1    2    0    0 -0.35690175174E+02  0.11861283987E+02 -0.87996053229E+02  0.12500000000E+03  0.80419002446E+02 0. -1.
</event>
<event>
 4    1  0.1586888E-001  0.1250000E+03  0.7546771E-02  0.1126479E+00
        -11   -1    0    0    0    0  0.00000000000E+00  0.00000000000E+00  0.12500000000E+03  0.12500000000E+03  0.00000000000E+00 0.  1.
         11   -1    0    0    0    0 -0.00000000000E+00 -0.00000000000E+00 -0.12500000000E+03  0.12500000000E+03  0.00000000000E+00 0. -1.
         24    1    1    2    0    0  0.33574531937E+01 -0.24456314130E+02  0.92457559198E+02  0.12500000000E+03  0.80419002446E+02 0.  1.
        -24    1    1    2    0    0 -0.33574531937E+01  0.24456314130E+02 -0.92457559198E+02  0.12500000000E+03  0.80419002446E+02 0. -1.
</event>
<event>
 4    1  0.1586888E-001  0.1250000E+03  0.7546771E-02  0.1126479E+00
        -11   -1    0    0    0    0  0.00000000000E+00  0.00000000000E+00  0.12500000000E+03  0.12500000000E+03  0.00000000000E+00 0.  1.
         11   -1    0    0    0    0 -0.00000000000E+00 -0.00000000000E+00 -0.12500000000E+03  0.12500000000E+03  0.00000000000E+00 0. -1.
         24    1    1    2    0    0  0.49892711817E+00 -0.29857774403E+01  0.95648420010E+02  0.12500000000E+03  0.80419002446E+02 0.  1.
        -24    1    1    2    0    0 -0.49892711817E+00  0.29857774403E+01 -0.95648420010E+02  0.12500000000E+03  0.80419002446E+02 0.  0.
</event>
<event>
 4    1  0.1586888E-001  0.1250000E+03  0.7546771E-02  0.1126479E+00
        -11   -1    0    0    0    0  0.00000000000E+00  0.00000000000E+00  0.12500000000E+03  0.12500000000E+03  0.00000000000E+00 0.  1.
         11   -1    0    0    0    0 -0.00000000000E+00 -0.00000000000E+00 -0.12500000000E+03  0.12500000000E+03  0.00000000000E+00 0. -1.
         24    1    1    2    0    0 -0.78479087112E+02  0.28170075392E+01  0.54688951354E+02  0.12500000000E+03  0.80419002446E+02 0.  1.
        -24    1    1    2    0    0  0.78479087112E+02 -0.28170075392E+01 -0.54688951354E+02  0.12500000000E+03  0.80419002446E+02 0. -1.
</event>
<event>
 4    1  0.1586888E-001  0.1250000E+03  0.7546771E-02  0.1126479E+00
        -11   -1    0    0    0    0  0.00000000000E+00  0.00000000000E+00  0.12500000000E+03  0.12500000000E+03  0.00000000000E+00 0.  1.
         11   -1    0    0    0    0 -0.00000000000E+00 -0.00000000000E+00 -0.12500000000E+03  0.12500000000E+03  0.00000000000E+00 0. -1.
         24    1    1    2    0    0  0.39064966223E+02 -0.47288228390E+02  0.73454311755E+02  0.12500000000E+03  0.80419002446E+02 0.  1.
        -24    1    1    2    0    0 -0.39064966223E+02  0.47288228390E+02 -0.73454311755E+02  0.12500000000E+03  0.80419002446E+02 0. -1.
</event>
<event>
 4    1  0.1586888E-001  0.1250000E+03  0.7546771E-02  0.1126479E+00
        -11   -1    0    0    0    0  0.00000000000E+00  0.00000000000E+00  0.12500000000E+03  0.12500000000E+03  0.00000000000E+00 0.  1.
         11   -1    0    0    0    0 -0.00000000000E+00 -0.00000000000E+00 -0.12500000000E+03  0.12500000000E+03  0.00000000000E+00 0. -1.
         24    1    1    2    0    0 -0.29005849288E+02 -0.73385445849E+02  0.54138905514E+02  0.12500000000E+03  0.80419002446E+02 0.  1.
        -24    1    1    2    0    0  0.29005849288E+02  0.73385445849E+02 -0.54138905514E+02  0.12500000000E+03  0.80419002446E+02 0. -1.
</event>
<event>
 4    1  0.1586888E-001  0.1250000E+03  0.7546771E-02  0.1126479E+00
        -11   -1    0    0    0    0  0.00000000000E+00  0.00000000000E+00  0.12500000000E+03  0.12500000000E+03  0.00000000000E+00 0.  1.
         11   -1    0    0    0    0 -0.00000000000E+00 -0.00000000000E+00 -0.12500000000E+03  0.12500000000E+03  0.00000000000E+00 0. -1.
         24    1    1    2    0    0 -0.71956436606E+02 -0.33175865000E+02  0.53660201808E+02  0.12500000000E+03  0.80419002446E+02 0.  1.
        -24    1    1    2    0    0  0.71956436606E+02  0.33175865000E+02 -0.53660201808E+02  0.12500000000E+03  0.80419002446E+02 0. -1.
</event>
<event>
 4    1  0.1586888E-001  0.1250000E+03  0.7546771E-02  0.1126479E+00
        -11   -1    0    0    0    0  0.00000000000E+00  0.00000000000E+00  0.12500000000E+03  0.12500000000E+03  0.00000000000E+00 0.  1.
         11   -1    0    0    0    0 -0.00000000000E+00 -0.00000000000E+00 -0.12500000000E+03  0.12500000000E+03  0.00000000000E+00 0. -1.
         24    1    1    2    0    0  0.56153904151E+02 -0.25965477320E+02  0.73009020551E+02  0.12500000000E+03  0.80419002446E+02 0.  1.
        -24    1    1    2    0    0 -0.56153904151E+02  0.25965477320E+02 -0.73009020551E+02  0.12500000000E+03  0.80419002446E+02 0. -1.
</event>
<event>
 4    1  0.1586888E-001  0.1250000E+03  0.7546771E-02  0.1126479E+00
        -11   -1    0    0    0    0  0.00000000000E+00  0.00000000000E+00  0.12500000000E+03  0.12500000000E+03  0.00000000000E+00 0.  1.
         11   -1    0    0    0    0 -0.00000000000E+00 -0.00000000000E+00 -0.12500000000E+03  0.12500000000E+03  0.00000000000E+00 0. -1.
         24    1    1    2    0    0  0.21597462853E+02  0.44343505229E+02  0.82006019218E+02  0.12500000000E+03  0.80419002446E+02 0. -1.
        -24    1    1    2    0    0 -0.21597462853E+02 -0.44343505229E+02 -0.82006019218E+02  0.12500000000E+03  0.80419002446E+02 0.  0.
</event>
<event>
 4    1  0.1586888E-001  0.1250000E+03  0.7546771E-02  0.1126479E+00
        -11   -1    0    0    0    0  0.00000000000E+00  0.00000000000E+00  0.12500000000E+03  0.12500000000E+03  0.00000000000E+00 0.  1.
         11   -1    0    0    0    0 -0.00000000000E+00 -0.00000000000E+00 -0.12500000000E+03  0.12500000000E+03  0.00000000000E+00 0. -1.
         24    1    1    2    0    0  0.23154016203E+02 -0.42636202501E+02  0.82485330912E+02  0.12500000000E+03  0.80419002446E+02 0.  1.
        -24    1    1    2    0    0 -0.23154016203E+02  0.42636202501E+02 -0.82485330912E+02  0.12500000000E+03  0.80419002446E+02 0. -1.
</event>
<event>
 4    1  0.1586888E-001  0.1250000E+03  0.7546771E-02  0.1126479E+00
        -11   -1    0    0    0    0  0.00000000000E+00  0.00000000000E+00  0.12500000000E+03  0.12500000000E+03  0.00000000000E+00 0.  1.
         11   -1    0    0    0    0 -0.00000000000E+00 -0.00000000000E+00 -0.12500000000E+03  0.12500000000E+03  0.00000000000E+00 0. -1.
         24    1    1    2    0    0  0.70132480356E+01  0.12262925650E+02  0.94647868714E+02  0.12500000000E+03  0.80419002446E+02 0.  1.
        -24    1    1    2    0    0 -0.70132480356E+01 -0.12262925650E+02 -0.94647868714E+02  0.12500000000E+03  0.80419002446E+02 0. -1.
</event>
<event>
 4    1  0.1586888E-001  0.1250000E+03  0.7546771E-02  0.1126479E+00
        -11   -1    0    0    0    0  0.00000000000E+00  0.00000000000E+00  0.12500000000E+03  0.12500000000E+03  0.00000000000E+00 0.  1.
         11   -1    0    0    0    0 -0.00000000000E+00 -0.00000000000E+00 -0.12500000000E+03  0.12500000000E+03  0.00000000000E+00 0. -1.
         24    1    1    2    0    0  0.47082942163E+02 -0.17861164783E+02  0.81375422552E+02  0.12500000000E+03  0.80419002446E+02 0.  1.
        -24    1    1    2    0    0 -0.47082942163E+02  0.17861164783E+02 -0.81375422552E+02  0.12500000000E+03  0.80419002446E+02 0. -1.
</event>
<event>
 4    1  0.1586888E-001  0.1250000E+03  0.7546771E-02  0.1126479E+00
        -11   -1    0    0    0    0  0.00000000000E+00  0.00000000000E+00  0.12500000000E+03  0.12500000000E+03  0.00000000000E+00 0.  1.
         11   -1    0    0    0    0 -0.00000000000E+00 -0.00000000000E+00 -0.12500000000E+03  0.12500000000E+03  0.00000000000E+00 0. -1.
         24    1    1    2    0    0  0.52054731947E+02 -0.19968938096E+01  0.80275160185E+02  0.12500000000E+03  0.80419002446E+02 0.  0.
        -24    1    1    2    0    0 -0.52054731947E+02  0.19968938096E+01 -0.80275160185E+02  0.12500000000E+03  0.80419002446E+02 0.  0.
</event>
<event>
 4    1  0.1586888E-001  0.1250000E+03  0.7546771E-02  0.1126479E+00
        -11   -1    0    0    0    0  0.00000000000E+00  0.00000000000E+00  0.12500000000E+03  0.12500000000E+03  0.00000000000E+00 0.  1.
         11   -1    0    0    0    0 -0.00000000000E+00 -0.00000000000E+00 -0.12500000000E+03  0.12500000000E+03  0.00000000000E+00 0. -1.
         24    1    1    2    0    0 -0.25200232873E+02 -0.14528555792E+02  0.91168269564E+02  0.12500000000E+03  0.80419002446E+02 0.  1.
        -24    1    1    2    0    0  0.25200232873E+02  0.14528555792E+02 -0.91168269564E+02  0.12500000000E+03  0.80419002446E+02 0. -1.
</event>
<event>
 4    1  0.1586888E-001  0.1250000E+03  0.7546771E-02  0.1126479E+00
        -11   -1    0    0    0    0  0.00000000000E+00  0.00000000000E+00  0.12500000000E+03  0.12500000000E+03  0.00000000000E+00 0.  1.
         11   -1    0    0    0    0 -0.00000000000E+00 -0.00000000000E+00 -0.12500000000E+03  0.12500000000E+03  0.00000000000E+00 0. -1.
         24    1    1    2    0    0 -0.28523451562E+02  0.49325352893E+02  0.76884369794E+02  0.12500000000E+03  0.80419002446E+02 0.  1.
        -24    1    1    2    0    0  0.28523451562E+02 -0.49325352893E+02 -0.76884369794E+02  0.12500000000E+03  0.80419002446E+02 0. -1.
</event>
<event>
 4    1  0.1586888E-001  0.1250000E+03  0.7546771E-02  0.1126479E+00
        -11   -1    0    0    0    0  0.00000000000E+00  0.00000000000E+00  0.12500000000E+03  0.12500000000E+03  0.00000000000E+00 0.  1.
         11   -1    0    0    0    0 -0.00000000000E+00 -0.00000000000E+00 -0.12500000000E+03  0.12500000000E+03  0.00000000000E+00 0. -1.
         24    1    1    2    0    0 -0.75815736160E+02 -0.57426620940E+02 -0.10580236463E+02  0.12500000000E+03  0.80419002446E+02 0. -1.
        -24    1    1    2    0    0  0.75815736160E+02  0.57426620940E+02  0.10580236463E+02  0.12500000000E+03  0.80419002446E+02 0.  1.
</event>
<event>
 4    1  0.1586888E-001  0.1250000E+03  0.7546771E-02  0.1126479E+00
        -11   -1    0    0    0    0  0.00000000000E+00  0.00000000000E+00  0.12500000000E+03  0.12500000000E+03  0.00000000000E+00 0.  1.
         11   -1    0    0    0    0 -0.00000000000E+00 -0.00000000000E+00 -0.12500000000E+03  0.12500000000E+03  0.00000000000E+00 0. -1.
         24    1    1    2    0    0 -0.48287370224E+02  0.77897035923E+02  0.27534809186E+02  0.12500000000E+03  0.80419002446E+02 0.  0.
        -24    1    1    2    0    0  0.48287370224E+02 -0.77897035923E+02 -0.27534809186E+02  0.12500000000E+03  0.80419002446E+02 0. -1.
</event>
<event>
 4    1  0.1586888E-001  0.1250000E+03  0.7546771E-02  0.1126479E+00
        -11   -1    0    0    0    0  0.00000000000E+00  0.00000000000E+00  0.12500000000E+03  0.12500000000E+03  0.00000000000E+00 0.  1.
         11   -1    0    0    0    0 -0.00000000000E+00 -0.00000000000E+00 -0.12500000000E+03  0.12500000000E+03  0.00000000000E+00 0. -1.
         24    1    1    2    0    0  0.13687655577E+02 -0.19739860376E+02  0.92632445951E+02  0.12500000000E+03  0.80419002446E+02 0.  1.
        -24    1    1    2    0    0 -0.13687655577E+02  0.19739860376E+02 -0.92632445951E+02  0.12500000000E+03  0.80419002446E+02 0. -1.
</event>
<event>
 4    1  0.1586888E-001  0.1250000E+03  0.7546771E-02  0.1126479E+00
        -11   -1    0    0    0    0  0.00000000000E+00  0.00000000000E+00  0.12500000000E+03  0.12500000000E+03  0.00000000000E+00 0.  1.
         11   -1    0    0    0    0 -0.00000000000E+00 -0.00000000000E+00 -0.12500000000E+03  0.12500000000E+03  0.00000000000E+00 0. -1.
         24    1    1    2    0    0  0.14915301725E+02 -0.32496314051E+02  0.88765462840E+02  0.12500000000E+03  0.80419002446E+02 0.  1.
        -24    1    1    2    0    0 -0.14915301725E+02  0.32496314051E+02 -0.88765462840E+02  0.12500000000E+03  0.80419002446E+02 0. -1.
</event>
<event>
 4    1  0.1586888E-001  0.1250000E+03  0.7546771E-02  0.1126479E+00
        -11   -1    0    0    0    0  0.00000000000E+00  0.00000000000E+00  0.12500000000E+03  0.12500000000E+03  0.00000000000E+00 0.  1.
         11   -1    0    0    0    0 -0.00000000000E+00 -0.00000000000E+00 -0.12500000000E+03  0.12500000000E+03  0.00000000000E+00 0. -1.
         24    1    1    2    0    0 -0.13032863811E+02  0.41006361431E+02  0.85477522359E+02  0.12500000000E+03  0.80419002446E+02 0.  1.
        -24    1    1    2    0    0  0.13032863811E+02 -0.41006361431E+02 -0.85477522359E+02  0.12500000000E+03  0.80419002446E+02 0. -1.
</event>
<event>
 4    1  0.1586888E-001  0.1250000E+03  0.7546771E-02  0.1126479E+00
        -11   -1    0    0    0    0  0.00000000000E+00  0.00000000000E+00  0.12500000000E+03  0.12500000000E+03  0.00000000000E+00 0.  1.
         11   -1    0    0    0    0 -0.00000000000E+00 -0.00000000000E+00 -0.12500000000E+03  0.12500000000E+03  0.00000000000E+00 0. -1.
         24    1    1    2    0    0  0.16656893878E+02  0.90356443461E+02  0.26759018238E+02  0.12500000000E+03  0.80419002446E+02 0.  1.
        -24    1    1    2    0    0 -0.16656893878E+02 -0.90356443461E+02 -0.26759018238E+02  0.12500000000E+03  0.80419002446E+02 0. -1.
</event>
<event>
 4    1  0.1586888E-001  0.1250000E+03  0.7546771E-02  0.1126479E+00
        -11   -1    0    0    0    0  0.00000000000E+00  0.00000000000E+00  0.12500000000E+03  0.12500000000E+03  0.00000000000E+00 0.  1.
         11   -1    0    0    0    0 -0.00000000000E+00 -0.00000000000E+00 -0.12500000000E+03  0.12500000000E+03  0.00000000000E+00 0. -1.
         24    1    1    2    0    0 -0.15701711053E+02  0.14573469004E+02  0.93267648822E+02  0.12500000000E+03  0.80419002446E+02 0.  1.
        -24    1    1    2    0    0  0.15701711053E+02 -0.14573469004E+02 -0.93267648822E+02  0.12500000000E+03  0.80419002446E+02 0. -1.
</event>
<event>
 4    1  0.1586888E-001  0.1250000E+03  0.7546771E-02  0.1126479E+00
        -11   -1    0    0    0    0  0.00000000000E+00  0.00000000000E+00  0.12500000000E+03  0.12500000000E+03  0.00000000000E+00 0.  1.
         11   -1    0    0    0    0 -0.00000000000E+00 -0.00000000000E+00 -0.12500000000E+03  0.12500000000E+03  0.00000000000E+00 0. -1.
         24    1    1    2    0    0 -0.24889708290E+02  0.74384715613E+01  0.92102961992E+02  0.12500000000E+03  0.80419002446E+02 0.  1.
        -24    1    1    2    0    0  0.24889708290E+02 -0.74384715613E+01 -0.92102961992E+02  0.12500000000E+03  0.80419002446E+02 0. -1.
</event>
<event>
 4    1  0.1586888E-001  0.1250000E+03  0.7546771E-02  0.1126479E+00
        -11   -1    0    0    0    0  0.00000000000E+00  0.00000000000E+00  0.12500000000E+03  0.12500000000E+03  0.00000000000E+00 0.  1.
         11   -1    0    0    0    0 -0.00000000000E+00 -0.00000000000E+00 -0.12500000000E+03  0.12500000000E+03  0.00000000000E+00 0. -1.
         24    1    1    2    0    0 -0.11092309344E+02 -0.48270988846E+02  0.81881965993E+02  0.12500000000E+03  0.80419002446E+02 0.  1.
        -24    1    1    2    0    0  0.11092309344E+02  0.48270988846E+02 -0.81881965993E+02  0.12500000000E+03  0.80419002446E+02 0. -1.
</event>
<event>
 4    1  0.1586888E-001  0.1250000E+03  0.7546771E-02  0.1126479E+00
        -11   -1    0    0    0    0  0.00000000000E+00  0.00000000000E+00  0.12500000000E+03  0.12500000000E+03  0.00000000000E+00 0.  1.
         11   -1    0    0    0    0 -0.00000000000E+00 -0.00000000000E+00 -0.12500000000E+03  0.12500000000E+03  0.00000000000E+00 0. -1.
         24    1    1    2    0    0 -0.34071865113E+02 -0.77537489727E+02  0.44551428039E+02  0.12500000000E+03  0.80419002446E+02 0.  1.
        -24    1    1    2    0    0  0.34071865113E+02  0.77537489727E+02 -0.44551428039E+02  0.12500000000E+03  0.80419002446E+02 0. -1.
</event>
<event>
 4    1  0.1586888E-001  0.1250000E+03  0.7546771E-02  0.1126479E+00
        -11   -1    0    0    0    0  0.00000000000E+00  0.00000000000E+00  0.12500000000E+03  0.12500000000E+03  0.00000000000E+00 0.  1.
         11   -1    0    0    0    0 -0.00000000000E+00 -0.00000000000E+00 -0.12500000000E+03  0.12500000000E+03  0.00000000000E+00 0. -1.
         24    1    1    2    0    0 -0.19955359672E+02  0.47918300564E+02  0.80395299222E+02  0.12500000000E+03  0.80419002446E+02 0.  1.
        -24    1    1    2    0    0  0.19955359672E+02 -0.47918300564E+02 -0.80395299222E+02  0.12500000000E+03  0.80419002446E+02 0. -1.
</event>
<event>
 4    1  0.1586888E-001  0.1250000E+03  0.7546771E-02  0.1126479E+00
        -11   -1    0    0    0    0  0.00000000000E+00  0.00000000000E+00  0.12500000000E+03  0.12500000000E+03  0.00000000000E+00 0.  1.
         11   -1    0    0    0    0 -0.00000000000E+00 -0.00000000000E+00 -0.12500000000E+03  0.12500000000E+03  0.00000000000E+00 0. -1.
         24    1    1    2    0    0 -0.43597826169E+02  0.19582029331E+02  0.82906922065E+02  0.12500000000E+03  0.80419002446E+02 0.  1.
        -24    1    1    2    0    0  0.43597826169E+02 -0.19582029331E+02 -0.82906922065E+02  0.12500000000E+03  0.80419002446E+02 0. -1.
</event>
<event>
 4    1  0.1586888E-001  0.1250000E+03  0.7546771E-02  0.1126479E+00
        -11   -1    0    0    0    0  0.00000000000E+00  0.00000000000E+00  0.12500000000E+03  0.12500000000E+03  0.00000000000E+00 0.  1.
         11   -1    0    0    0    0 -0.00000000000E+00 -0.00000000000E+00 -0.12500000000E+03  0.12500000000E+03  0.00000000000E+00 0. -1.
         24    1    1    2    0    0  0.36281668866E+02 -0.16619596218E+02  0.86978236194E+02  0.12500000000E+03  0.80419002446E+02 0.  1.
        -24    1    1    2    0    0 -0.36281668866E+02  0.16619596218E+02 -0.86978236194E+02  0.12500000000E+03  0.80419002446E+02 0. -1.
</event>
<event>
 4    1  0.1586888E-001  0.1250000E+03  0.7546771E-02  0.1126479E+00
        -11   -1    0    0    0    0  0.00000000000E+00  0.00000000000E+00  0.12500000000E+03  0.12500000000E+03  0.00000000000E+00 0.  1.
         11   -1    0    0    0    0 -0.00000000000E+00 -0.00000000000E+00 -0.12500000000E+03  0.12500000000E+03  0.00000000000E+00 0. -1.
         24    1    1    2    0    0 -0.44199033922E+02  0.39192367262E+01  0.84787198500E+02  0.12500000000E+03  0.80419002446E+02 0.  1.
        -24    1    1    2    0    0  0.44199033922E+02 -0.39192367262E+01 -0.84787198500E+02  0.12500000000E+03  0.80419002446E+02 0. -1.
</event>
<event>
 4    1  0.1586888E-001  0.1250000E+03  0.7546771E-02  0.1126479E+00
        -11   -1    0    0    0    0  0.00000000000E+00  0.00000000000E+00  0.12500000000E+03  0.12500000000E+03  0.00000000000E+00 0.  1.
         11   -1    0    0    0    0 -0.00000000000E+00 -0.00000000000E+00 -0.12500000000E+03  0.12500000000E+03  0.00000000000E+00 0. -1.
         24    1    1    2    0    0  0.48959731882E+02  0.19656803971E+01  0.82200150853E+02  0.12500000000E+03  0.80419002446E+02 0.  1.
        -24    1    1    2    0    0 -0.48959731882E+02 -0.19656803971E+01 -0.82200150853E+02  0.12500000000E+03  0.80419002446E+02 0. -1.
</event>
<event>
 4    1  0.1586888E-001  0.1250000E+03  0.7546771E-02  0.1126479E+00
        -11   -1    0    0    0    0  0.00000000000E+00  0.00000000000E+00  0.12500000000E+03  0.12500000000E+03  0.00000000000E+00 0.  1.
         11   -1    0    0    0    0 -0.00000000000E+00 -0.00000000000E+00 -0.12500000000E+03  0.12500000000E+03  0.00000000000E+00 0. -1.
         24    1    1    2    0    0  0.54777530783E+02  0.32997679699E+02  0.71192410421E+02  0.12500000000E+03  0.80419002446E+02 0.  1.
        -24    1    1    2    0    0 -0.54777530783E+02 -0.32997679699E+02 -0.71192410421E+02  0.12500000000E+03  0.80419002446E+02 0. -1.
</event>
<event>
 4    1  0.1586888E-001  0.1250000E+03  0.7546771E-02  0.1126479E+00
        -11   -1    0    0    0    0  0.00000000000E+00  0.00000000000E+00  0.12500000000E+03  0.12500000000E+03  0.00000000000E+00 0.  1.
         11   -1    0    0    0    0 -0.00000000000E+00 -0.00000000000E+00 -0.12500000000E+03  0.12500000000E+03  0.00000000000E+00 0. -1.
         24    1    1    2    0    0  0.43783060874E+02 -0.82744561944E+02  0.19853591487E+02  0.12500000000E+03  0.80419002446E+02 0.  1.
        -24    1    1    2    0    0 -0.43783060874E+02  0.82744561944E+02 -0.19853591487E+02  0.12500000000E+03  0.80419002446E+02 0. -1.
</event>
<event>
 4    1  0.1586888E-001  0.1250000E+03  0.7546771E-02  0.1126479E+00
        -11   -1    0    0    0    0  0.00000000000E+00  0.00000000000E+00  0.12500000000E+03  0.12500000000E+03  0.00000000000E+00 0.  1.
         11   -1    0    0    0    0 -0.00000000000E+00 -0.00000000000E+00 -0.12500000000E+03  0.12500000000E+03  0.00000000000E+00 0. -1.
         24    1    1    2    0    0 -0.36355754798E+02  0.57310852390E+02  0.67464874839E+02  0.12500000000E+03  0.80419002446E+02 0.  1.
        -24    1    1    2    0    0  0.36355754798E+02 -0.57310852390E+02 -0.67464874839E+02  0.12500000000E+03  0.80419002446E+02 0. -1.
</event>
<event>
 4    1  0.1586888E-001  0.1250000E+03  0.7546771E-02  0.1126479E+00
        -11   -1    0    0    0    0  0.00000000000E+00  0.00000000000E+00  0.12500000000E+03  0.12500000000E+03  0.00000000000E+00 0.  1.
         11   -1    0    0    0    0 -0.00000000000E+00 -0.00000000000E+00 -0.12500000000E+03  0.12500000000E+03  0.00000000000E+00 0. -1.
         24    1    1    2    0    0 -0.17300088318E+02  0.75162823027E+00  0.94116555636E+02  0.12500000000E+03  0.80419002446E+02 0.  1.
        -24    1    1    2    0    0  0.17300088318E+02 -0.75162823027E+00 -0.94116555636E+02  0.12500000000E+03  0.80419002446E+02 0.  0.
</event>
<event>
 4    1  0.1586888E-001  0.1250000E+03  0.7546771E-02  0.1126479E+00
        -11   -1    0    0    0    0  0.00000000000E+00  0.00000000000E+00  0.12500000000E+03  0.12500000000E+03  0.00000000000E+00 0.  1.
         11   -1    0    0    0    0 -0.00000000000E+00 -0.00000000000E+00 -0.12500000000E+03  0.12500000000E+03  0.00000000000E+00 0. -1.
         24    1    1    2    0    0  0.54239361875E+02 -0.13757319219E+02  0.77631255541E+02  0.12500000000E+03  0.80419002446E+02 0.  1.
        -24    1    1    2    0    0 -0.54239361875E+02  0.13757319219E+02 -0.77631255541E+02  0.12500000000E+03  0.80419002446E+02 0. -1.
</event>
<event>
 4    1  0.1586888E-001  0.1250000E+03  0.7546771E-02  0.1126479E+00
        -11   -1    0    0    0    0  0.00000000000E+00  0.00000000000E+00  0.12500000000E+03  0.12500000000E+03  0.00000000000E+00 0.  1.
         11   -1    0    0    0    0 -0.00000000000E+00 -0.00000000000E+00 -0.12500000000E+03  0.12500000000E+03  0.00000000000E+00 0. -1.
         24    1    1    2    0    0  0.64857546874E-01  0.31404718864E+02  0.90396479313E+02  0.12500000000E+03  0.80419002446E+02 0.  1.
        -24    1    1    2    0    0 -0.64857546874E-01 -0.31404718864E+02 -0.90396479313E+02  0.12500000000E+03  0.80419002446E+02 0. -1.
</event>
<event>
 4    1  0.1586888E-001  0.1250000E+03  0.7546771E-02  0.1126479E+00
        -11   -1    0    0    0    0  0.00000000000E+00  0.00000000000E+00  0.12500000000E+03  0.12500000000E+03  0.00000000000E+00 0.  1.
         11   -1    0    0    0    0 -0.00000000000E+00 -0.00000000000E+00 -0.12500000000E+03  0.12500000000E+03  0.00000000000E+00 0. -1.
         24    1    1    2    0    0  0.65539191742E+02 -0.21891494688E+02  0.66205444276E+02  0.12500000000E+03  0.80419002446E+02 0.  1.
        -24    1    1    2    0    0 -0.65539191742E+02  0.21891494688E+02 -0.66205444276E+02  0.12500000000E+03  0.80419002446E+02 0. -1.
</event>
<event>
 4    1  0.1586888E-001  0.1250000E+03  0.7546771E-02  0.1126479E+00
        -11   -1    0    0    0    0  0.00000000000E+00  0.00000000000E+00  0.12500000000E+03  0.12500000000E+03  0.00000000000E+00 0.  1.
         11   -1    0    0    0    0 -0.00000000000E+00 -0.00000000000E+00 -0.12500000000E+03  0.12500000000E+03  0.00000000000E+00 0. -1.
         24    1    1    2    0    0  0.85356198766E+01 -0.57005424364E+02  0.76389193163E+02  0.12500000000E+03  0.80419002446E+02 0.  1.
        -24    1    1    2    0    0 -0.85356198766E+01  0.57005424364E+02 -0.76389193163E+02  0.12500000000E+03  0.80419002446E+02 0. -1.
</event>
<event>
 4    1  0.1586888E-001  0.1250000E+03  0.7546771E-02  0.1126479E+00
        -11   -1    0    0    0    0  0.00000000000E+00  0.00000000000E+00  0.12500000000E+03  0.12500000000E+03  0.00000000000E+00 0.  1.
         11   -1    0    0    0    0 -0.00000000000E+00 -0.00000000000E+00 -0.12500000000E+03  0.12500000000E+03  0.00000000000E+00 0. -1.
         24    1    1    2    0    0  0.22236311203E+02 -0.26332137895E+02  0.89274570979E+02  0.12500000000E+03  0.80419002446E+02 0.  1.
        -24    1    1    2    0    0 -0.22236311203E+02  0.26332137895E+02 -0.89274570979E+02  0.12500000000E+03  0.80419002446E+02 0. -1.
</event>
<event>
 4    1  0.1586888E-001  0.1250000E+03  0.7546771E-02  0.1126479E+00
        -11   -1    0    0    0    0  0.00000000000E+00  0.00000000000E+00  0.12500000000E+03  0.12500000000E+03  0.00000000000E+00 0.  1.
         11   -1    0    0    0    0 -0.00000000000E+00 -0.00000000000E+00 -0.12500000000E+03  0.12500000000E+03  0.00000000000E+00 0. -1.
         24    1    1    2    0    0 -0.82083880411E+01  0.46850784173E+02  0.83038608091E+02  0.12500000000E+03  0.80419002446E+02 0.  1.
        -24    1    1    2    0    0  0.82083880411E+01 -0.46850784173E+02 -0.83038608091E+02  0.12500000000E+03  0.80419002446E+02 0. -1.
</event>
<event>
 4    1  0.1586888E-001  0.1250000E+03  0.7546771E-02  0.1126479E+00
        -11   -1    0    0    0    0  0.00000000000E+00  0.00000000000E+00  0.12500000000E+03  0.12500000000E+03  0.00000000000E+00 0.  1.
         11   -1    0    0    0    0 -0.00000000000E+00 -0.00000000000E+00 -0.12500000000E+03  0.12500000000E+03  0.00000000000E+00 0. -1.
         24    1    1    2    0    0 -0.34043847801E+02 -0.13141323681E+02  0.88465281803E+02  0.12500000000E+03  0.80419002446E+02 0.  1.
        -24    1    1    2    0    0  0.34043847801E+02  0.13141323681E+02 -0.88465281803E+02  0.12500000000E+03  0.80419002446E+02 0. -1.
</event>
<event>
 4    1  0.1586888E-001  0.1250000E+03  0.7546771E-02  0.1126479E+00
        -11   -1    0    0    0    0  0.00000000000E+00  0.00000000000E+00  0.12500000000E+03  0.12500000000E+03  0.00000000000E+00 0.  1.
         11   -1    0    0    0    0 -0.00000000000E+00 -0.00000000000E+00 -0.12500000000E+03  0.12500000000E+03  0.00000000000E+00 0. -1.
         24    1    1    2    0    0  0.12034203513E+02 -0.57923231352E+02  0.75218756046E+02  0.12500000000E+03  0.80419002446E+02 0.  1.
        -24    1    1    2    0    0 -0.12034203513E+02  0.57923231352E+02 -0.75218756046E+02  0.12500000000E+03  0.80419002446E+02 0. -1.
</event>
<event>
 4    1  0.1586888E-001  0.1250000E+03  0.7546771E-02  0.1126479E+00
        -11   -1    0    0    0    0  0.00000000000E+00  0.00000000000E+00  0.12500000000E+03  0.12500000000E+03  0.00000000000E+00 0.  1.
         11   -1    0    0    0    0 -0.00000000000E+00 -0.00000000000E+00 -0.12500000000E+03  0.12500000000E+03  0.00000000000E+00 0. -1.
         24    1    1    2    0    0 -0.24923129165E+01 -0.24178731297E+01  0.95633290812E+02  0.12500000000E+03  0.80419002446E+02 0.  1.
        -24    1    1    2    0    0  0.24923129165E+01  0.24178731297E+01 -0.95633290812E+02  0.12500000000E+03  0.80419002446E+02 0.  0.
</event>
<event>
 4    1  0.1586888E-001  0.1250000E+03  0.7546771E-02  0.1126479E+00
        -11   -1    0    0    0    0  0.00000000000E+00  0.00000000000E+00  0.12500000000E+03  0.12500000000E+03  0.00000000000E+00 0.  1.
         11   -1    0    0    0    0 -0.00000000000E+00 -0.00000000000E+00 -0.12500000000E+03  0.12500000000E+03  0.00000000000E+00 0. -1.
         24    1    1    2    0    0  0.17808537772E+02  0.26351827693E+01  0.93987743030E+02  0.12500000000E+03  0.80419002446E+02 0.  1.
        -24    1    1    2    0    0 -0.17808537772E+02 -0.26351827693E+01 -0.93987743030E+02  0.12500000000E+03  0.80419002446E+02 0. -1.
</event>
<event>
 4    1  0.1586888E-001  0.1250000E+03  0.7546771E-02  0.1126479E+00
        -11   -1    0    0    0    0  0.00000000000E+00  0.00000000000E+00  0.12500000000E+03  0.12500000000E+03  0.00000000000E+00 0.  1.
         11   -1    0    0    0    0 -0.00000000000E+00 -0.00000000000E+00 -0.12500000000E+03  0.12500000000E+03  0.00000000000E+00 0. -1.
         24    1    1    2    0    0 -0.65890681317E+02 -0.42306578174E+01  0.69269789199E+02  0.12500000000E+03  0.80419002446E+02 0.  1.
        -24    1    1    2    0    0  0.65890681317E+02  0.42306578174E+01 -0.69269789199E+02  0.12500000000E+03  0.80419002446E+02 0. -1.
</event>
<event>
 4    1  0.1586888E-001  0.1250000E+03  0.7546771E-02  0.1126479E+00
        -11   -1    0    0    0    0  0.00000000000E+00  0.00000000000E+00  0.12500000000E+03  0.12500000000E+03  0.00000000000E+00 0.  1.
         11   -1    0    0    0    0 -0.00000000000E+00 -0.00000000000E+00 -0.12500000000E+03  0.12500000000E+03  0.00000000000E+00 0. -1.
         24    1    1    2    0    0  0.48278064413E+02 -0.80060158990E+01  0.82236951862E+02  0.12500000000E+03  0.80419002446E+02 0.  1.
        -24    1    1    2    0    0 -0.48278064413E+02  0.80060158990E+01 -0.82236951862E+02  0.12500000000E+03  0.80419002446E+02 0. -1.
</event>
<event>
 4    1  0.1586888E-001  0.1250000E+03  0.7546771E-02  0.1126479E+00
        -11   -1    0    0    0    0  0.00000000000E+00  0.00000000000E+00  0.12500000000E+03  0.12500000000E+03  0.00000000000E+00 0.  1.
         11   -1    0    0    0    0 -0.00000000000E+00 -0.00000000000E+00 -0.12500000000E+03  0.12500000000E+03  0.00000000000E+00 0. -1.
         24    1    1    2    0    0 -0.43259939812E+02  0.82678502627E+01  0.84958838887E+02  0.12500000000E+03  0.80419002446E+02 0.  1.
        -24    1    1    2    0    0  0.43259939812E+02 -0.82678502627E+01 -0.84958838887E+02  0.12500000000E+03  0.80419002446E+02 0. -1.
</event>
<event>
 4    1  0.1586888E-001  0.1250000E+03  0.7546771E-02  0.1126479E+00
        -11   -1    0    0    0    0  0.00000000000E+00  0.00000000000E+00  0.12500000000E+03  0.12500000000E+03  0.00000000000E+00 0.  1.
         11   -1    0    0    0    0 -0.00000000000E+00 -0.00000000000E+00 -0.12500000000E+03  0.12500000000E+03  0.00000000000E+00 0. -1.
         24    1    1    2    0    0  0.54465451979E+02  0.28635094450E+01  0.78632683409E+02  0.12500000000E+03  0.80419002446E+02 0.  0.
        -24    1    1    2    0    0 -0.54465451979E+02 -0.28635094450E+01 -0.78632683409E+02  0.12500000000E+03  0.80419002446E+02 0.  1.
</event>
<event>
 4    1  0.1586888E-001  0.1250000E+03  0.7546771E-02  0.1126479E+00
        -11   -1    0    0    0    0  0.00000000000E+00  0.00000000000E+00  0.12500000000E+03  0.12500000000E+03  0.00000000000E+00 0.  1.
         11   -1    0    0    0    0 -0.00000000000E+00 -0.00000000000E+00 -0.12500000000E+03  0.12500000000E+03  0.00000000000E+00 0. -1.
         24    1    1    2    0    0  0.32206157707E+02  0.21598455071E+02  0.87487451614E+02  0.12500000000E+03  0.80419002446E+02 0.  1.
        -24    1    1    2    0    0 -0.32206157707E+02 -0.21598455071E+02 -0.87487451614E+02  0.12500000000E+03  0.80419002446E+02 0. -1.
</event>
<event>
 4    1  0.1586888E-001  0.1250000E+03  0.7546771E-02  0.1126479E+00
        -11   -1    0    0    0    0  0.00000000000E+00  0.00000000000E+00  0.12500000000E+03  0.12500000000E+03  0.00000000000E+00 0.  1.
         11   -1    0    0    0    0 -0.00000000000E+00 -0.00000000000E+00 -0.12500000000E+03  0.12500000000E+03  0.00000000000E+00 0. -1.
         24    1    1    2    0    0 -0.10227024140E+02  0.58463679914E+02  0.75067903619E+02  0.12500000000E+03  0.80419002446E+02 0.  1.
        -24    1    1    2    0    0  0.10227024140E+02 -0.58463679914E+02 -0.75067903619E+02  0.12500000000E+03  0.80419002446E+02 0. -1.
</event>
<event>
 4    1  0.1586888E-001  0.1250000E+03  0.7546771E-02  0.1126479E+00
        -11   -1    0    0    0    0  0.00000000000E+00  0.00000000000E+00  0.12500000000E+03  0.12500000000E+03  0.00000000000E+00 0.  1.
         11   -1    0    0    0    0 -0.00000000000E+00 -0.00000000000E+00 -0.12500000000E+03  0.12500000000E+03  0.00000000000E+00 0. -1.
         24    1    1    2    0    0  0.50396422518E+02 -0.12461219061E+02  0.80390936445E+02  0.12500000000E+03  0.80419002446E+02 0.  1.
        -24    1    1    2    0    0 -0.50396422518E+02  0.12461219061E+02 -0.80390936445E+02  0.12500000000E+03  0.80419002446E+02 0. -1.
</event>
<event>
 4    1  0.1586888E-001  0.1250000E+03  0.7546771E-02  0.1126479E+00
        -11   -1    0    0    0    0  0.00000000000E+00  0.00000000000E+00  0.12500000000E+03  0.12500000000E+03  0.00000000000E+00 0.  1.
         11   -1    0    0    0    0 -0.00000000000E+00 -0.00000000000E+00 -0.12500000000E+03  0.12500000000E+03  0.00000000000E+00 0. -1.
         24    1    1    2    0    0 -0.18106738229E+02  0.26977578506E+01  0.93928974118E+02  0.12500000000E+03  0.80419002446E+02 0.  1.
        -24    1    1    2    0    0  0.18106738229E+02 -0.26977578506E+01 -0.93928974118E+02  0.12500000000E+03  0.80419002446E+02 0. -1.
</event>
<event>
 4    1  0.1586888E-001  0.1250000E+03  0.7546771E-02  0.1126479E+00
        -11   -1    0    0    0    0  0.00000000000E+00  0.00000000000E+00  0.12500000000E+03  0.12500000000E+03  0.00000000000E+00 0.  1.
         11   -1    0    0    0    0 -0.00000000000E+00 -0.00000000000E+00 -0.12500000000E+03  0.12500000000E+03  0.00000000000E+00 0. -1.
         24    1    1    2    0    0  0.47285663213E+02  0.55806654857E+02  0.61704678702E+02  0.12500000000E+03  0.80419002446E+02 0.  1.
        -24    1    1    2    0    0 -0.47285663213E+02 -0.55806654857E+02 -0.61704678702E+02  0.12500000000E+03  0.80419002446E+02 0. -1.
</event>
<event>
 4    1  0.1586888E-001  0.1250000E+03  0.7546771E-02  0.1126479E+00
        -11   -1    0    0    0    0  0.00000000000E+00  0.00000000000E+00  0.12500000000E+03  0.12500000000E+03  0.00000000000E+00 0.  1.
         11   -1    0    0    0    0 -0.00000000000E+00 -0.00000000000E+00 -0.12500000000E+03  0.12500000000E+03  0.00000000000E+00 0. -1.
         24    1    1    2    0    0 -0.12590589283E+01 -0.92482520012E+02  0.24559770122E+02  0.12500000000E+03  0.80419002446E+02 0.  0.
        -24    1    1    2    0    0  0.12590589283E+01  0.92482520012E+02 -0.24559770122E+02  0.12500000000E+03  0.80419002446E+02 0. -1.
</event>
<event>
 4    1  0.1586888E-001  0.1250000E+03  0.7546771E-02  0.1126479E+00
        -11   -1    0    0    0    0  0.00000000000E+00  0.00000000000E+00  0.12500000000E+03  0.12500000000E+03  0.00000000000E+00 0.  1.
         11   -1    0    0    0    0 -0.00000000000E+00 -0.00000000000E+00 -0.12500000000E+03  0.12500000000E+03  0.00000000000E+00 0. -1.
         24    1    1    2    0    0  0.47288495233E+02 -0.66461317902E+02  0.50044734857E+02  0.12500000000E+03  0.80419002446E+02 0.  0.
        -24    1    1    2    0    0 -0.47288495233E+02  0.66461317902E+02 -0.50044734857E+02  0.12500000000E+03  0.80419002446E+02 0.  1.
</event>
<event>
 4    1  0.1586888E-001  0.1250000E+03  0.7546771E-02  0.1126479E+00
        -11   -1    0    0    0    0  0.00000000000E+00  0.00000000000E+00  0.12500000000E+03  0.12500000000E+03  0.00000000000E+00 0.  1.
         11   -1    0    0    0    0 -0.00000000000E+00 -0.00000000000E+00 -0.12500000000E+03  0.12500000000E+03  0.00000000000E+00 0. -1.
         24    1    1    2    0    0 -0.19452495254E+02 -0.74379948091E+02  0.56982521847E+02  0.12500000000E+03  0.80419002446E+02 0.  1.
        -24    1    1    2    0    0  0.19452495254E+02  0.74379948091E+02 -0.56982521847E+02  0.12500000000E+03  0.80419002446E+02 0. -1.
</event>
<event>
 4    1  0.1586888E-001  0.1250000E+03  0.7546771E-02  0.1126479E+00
        -11   -1    0    0    0    0  0.00000000000E+00  0.00000000000E+00  0.12500000000E+03  0.12500000000E+03  0.00000000000E+00 0.  1.
         11   -1    0    0    0    0 -0.00000000000E+00 -0.00000000000E+00 -0.12500000000E+03  0.12500000000E+03  0.00000000000E+00 0. -1.
         24    1    1    2    0    0  0.16448398671E+02 -0.93490667966E+02  0.12113184141E+02  0.12500000000E+03  0.80419002446E+02 0. -1.
        -24    1    1    2    0    0 -0.16448398671E+02  0.93490667966E+02 -0.12113184141E+02  0.12500000000E+03  0.80419002446E+02 0.  1.
</event>
<event>
 4    1  0.1586888E-001  0.1250000E+03  0.7546771E-02  0.1126479E+00
        -11   -1    0    0    0    0  0.00000000000E+00  0.00000000000E+00  0.12500000000E+03  0.12500000000E+03  0.00000000000E+00 0.  1.
         11   -1    0    0    0    0 -0.00000000000E+00 -0.00000000000E+00 -0.12500000000E+03  0.12500000000E+03  0.00000000000E+00 0. -1.
         24    1    1    2    0    0 -0.25752827664E+02 -0.27234046725E+01  0.92125778043E+02  0.12500000000E+03  0.80419002446E+02 0.  1.
        -24    1    1    2    0    0  0.25752827664E+02  0.27234046725E+01 -0.92125778043E+02  0.12500000000E+03  0.80419002446E+02 0. -1.
</event>
<event>
 4    1  0.1586888E-001  0.1250000E+03  0.7546771E-02  0.1126479E+00
        -11   -1    0    0    0    0  0.00000000000E+00  0.00000000000E+00  0.12500000000E+03  0.12500000000E+03  0.00000000000E+00 0.  1.
         11   -1    0    0    0    0 -0.00000000000E+00 -0.00000000000E+00 -0.12500000000E+03  0.12500000000E+03  0.00000000000E+00 0. -1.
         24    1    1    2    0    0 -0.37202217305E+02  0.19370660985E+02  0.86014862473E+02  0.12500000000E+03  0.80419002446E+02 0.  1.
        -24    1    1    2    0    0  0.37202217305E+02 -0.19370660985E+02 -0.86014862473E+02  0.12500000000E+03  0.80419002446E+02 0. -1.
</event>
<event>
 4    1  0.1586888E-001  0.1250000E+03  0.7546771E-02  0.1126479E+00
        -11   -1    0    0    0    0  0.00000000000E+00  0.00000000000E+00  0.12500000000E+03  0.12500000000E+03  0.00000000000E+00 0.  1.
         11   -1    0    0    0    0 -0.00000000000E+00 -0.00000000000E+00 -0.12500000000E+03  0.12500000000E+03  0.00000000000E+00 0. -1.
         24    1    1    2    0    0 -0.59006715538E+02  0.30611259918E+02  0.68839976273E+02  0.12500000000E+03  0.80419002446E+02 0.  0.
        -24    1    1    2    0    0  0.59006715538E+02 -0.30611259918E+02 -0.68839976273E+02  0.12500000000E+03  0.80419002446E+02 0. -1.
</event>
<event>
 4    1  0.1586888E-001  0.1250000E+03  0.7546771E-02  0.1126479E+00
        -11   -1    0    0    0    0  0.00000000000E+00  0.00000000000E+00  0.12500000000E+03  0.12500000000E+03  0.00000000000E+00 0.  1.
         11   -1    0    0    0    0 -0.00000000000E+00 -0.00000000000E+00 -0.12500000000E+03  0.12500000000E+03  0.00000000000E+00 0. -1.
         24    1    1    2    0    0  0.58350101871E+02  0.33113903977E+02  0.68238691522E+02  0.12500000000E+03  0.80419002446E+02 0.  1.
        -24    1    1    2    0    0 -0.58350101871E+02 -0.33113903977E+02 -0.68238691522E+02  0.12500000000E+03  0.80419002446E+02 0. -1.
</event>
<event>
 4    1  0.1586888E-001  0.1250000E+03  0.7546771E-02  0.1126479E+00
        -11   -1    0    0    0    0  0.00000000000E+00  0.00000000000E+00  0.12500000000E+03  0.12500000000E+03  0.00000000000E+00 0.  1.
         11   -1    0    0    0    0 -0.00000000000E+00 -0.00000000000E+00 -0.12500000000E+03  0.12500000000E+03  0.00000000000E+00 0. -1.
         24    1    1    2    0    0 -0.33863380424E+02 -0.68863570820E+02  0.57173981196E+02  0.12500000000E+03  0.80419002446E+02 0.  1.
        -24    1    1    2    0    0  0.33863380424E+02  0.68863570820E+02 -0.57173981196E+02  0.12500000000E+03  0.80419002446E+02 0. -1.
</event>
<event>
 4    1  0.1586888E-001  0.1250000E+03  0.7546771E-02  0.1126479E+00
        -11   -1    0    0    0    0  0.00000000000E+00  0.00000000000E+00  0.12500000000E+03  0.12500000000E+03  0.00000000000E+00 0.  1.
         11   -1    0    0    0    0 -0.00000000000E+00 -0.00000000000E+00 -0.12500000000E+03  0.12500000000E+03  0.00000000000E+00 0. -1.
         24    1    1    2    0    0  0.70409922500E+02 -0.21903750844E+01  0.64772132249E+02  0.12500000000E+03  0.80419002446E+02 0.  1.
        -24    1    1    2    0    0 -0.70409922500E+02  0.21903750844E+01 -0.64772132249E+02  0.12500000000E+03  0.80419002446E+02 0.  0.
</event>
<event>
 4    1  0.1586888E-001  0.1250000E+03  0.7546771E-02  0.1126479E+00
        -11   -1    0    0    0    0  0.00000000000E+00  0.00000000000E+00  0.12500000000E+03  0.12500000000E+03  0.00000000000E+00 0.  1.
         11   -1    0    0    0    0 -0.00000000000E+00 -0.00000000000E+00 -0.12500000000E+03  0.12500000000E+03  0.00000000000E+00 0. -1.
         24    1    1    2    0    0 -0.23114778031E+02 -0.22015585851E+02  0.90215326092E+02  0.12500000000E+03  0.80419002446E+02 0.  1.
        -24    1    1    2    0    0  0.23114778031E+02  0.22015585851E+02 -0.90215326092E+02  0.12500000000E+03  0.80419002446E+02 0.  1.
</event>
<event>
 4    1  0.1586888E-001  0.1250000E+03  0.7546771E-02  0.1126479E+00
        -11   -1    0    0    0    0  0.00000000000E+00  0.00000000000E+00  0.12500000000E+03  0.12500000000E+03  0.00000000000E+00 0.  1.
         11   -1    0    0    0    0 -0.00000000000E+00 -0.00000000000E+00 -0.12500000000E+03  0.12500000000E+03  0.00000000000E+00 0. -1.
         24    1    1    2    0    0  0.82691460401E+01  0.49042695619E+02  0.81757074775E+02  0.12500000000E+03  0.80419002446E+02 0.  1.
        -24    1    1    2    0    0 -0.82691460401E+01 -0.49042695619E+02 -0.81757074775E+02  0.12500000000E+03  0.80419002446E+02 0. -1.
</event>
<event>
 4    1  0.1586888E-001  0.1250000E+03  0.7546771E-02  0.1126479E+00
        -11   -1    0    0    0    0  0.00000000000E+00  0.00000000000E+00  0.12500000000E+03  0.12500000000E+03  0.00000000000E+00 0.  1.
         11   -1    0    0    0    0 -0.00000000000E+00 -0.00000000000E+00 -0.12500000000E+03  0.12500000000E+03  0.00000000000E+00 0. -1.
         24    1    1    2    0    0  0.61607510067E+02  0.68819617930E+02 -0.25023168001E+02  0.12500000000E+03  0.80419002446E+02 0. -1.
        -24    1    1    2    0    0 -0.61607510067E+02 -0.68819617930E+02  0.25023168001E+02  0.12500000000E+03  0.80419002446E+02 0.  1.
</event>
<event>
 4    1  0.1586888E-001  0.1250000E+03  0.7546771E-02  0.1126479E+00
        -11   -1    0    0    0    0  0.00000000000E+00  0.00000000000E+00  0.12500000000E+03  0.12500000000E+03  0.00000000000E+00 0.  1.
         11   -1    0    0    0    0 -0.00000000000E+00 -0.00000000000E+00 -0.12500000000E+03  0.12500000000E+03  0.00000000000E+00 0. -1.
         24    1    1    2    0    0 -0.50375718315E+01 -0.45211106684E+02  0.84192415027E+02  0.12500000000E+03  0.80419002446E+02 0.  1.
        -24    1    1    2    0    0  0.50375718315E+01  0.45211106684E+02 -0.84192415027E+02  0.12500000000E+03  0.80419002446E+02 0. -1.
</event>
<event>
 4    1  0.1586888E-001  0.1250000E+03  0.7546771E-02  0.1126479E+00
        -11   -1    0    0    0    0  0.00000000000E+00  0.00000000000E+00  0.12500000000E+03  0.12500000000E+03  0.00000000000E+00 0.  1.
         11   -1    0    0    0    0 -0.00000000000E+00 -0.00000000000E+00 -0.12500000000E+03  0.12500000000E+03  0.00000000000E+00 0. -1.
         24    1    1    2    0    0  0.80164720154E+02  0.47372428351E+02 -0.22073846978E+02  0.12500000000E+03  0.80419002446E+02 0. -1.
        -24    1    1    2    0    0 -0.80164720154E+02 -0.47372428351E+02  0.22073846978E+02  0.12500000000E+03  0.80419002446E+02 0.  1.
</event>
<event>
 4    1  0.1586888E-001  0.1250000E+03  0.7546771E-02  0.1126479E+00
        -11   -1    0    0    0    0  0.00000000000E+00  0.00000000000E+00  0.12500000000E+03  0.12500000000E+03  0.00000000000E+00 0.  1.
         11   -1    0    0    0    0 -0.00000000000E+00 -0.00000000000E+00 -0.12500000000E+03  0.12500000000E+03  0.00000000000E+00 0. -1.
         24    1    1    2    0    0  0.17294081529E+02  0.10728914869E+02  0.93507161092E+02  0.12500000000E+03  0.80419002446E+02 0.  1.
        -24    1    1    2    0    0 -0.17294081529E+02 -0.10728914869E+02 -0.93507161092E+02  0.12500000000E+03  0.80419002446E+02 0. -1.
</event>
<event>
 4    1  0.1586888E-001  0.1250000E+03  0.7546771E-02  0.1126479E+00
        -11   -1    0    0    0    0  0.00000000000E+00  0.00000000000E+00  0.12500000000E+03  0.12500000000E+03  0.00000000000E+00 0.  1.
         11   -1    0    0    0    0 -0.00000000000E+00 -0.00000000000E+00 -0.12500000000E+03  0.12500000000E+03  0.00000000000E+00 0. -1.
         24    1    1    2    0    0  0.22004552526E+02 -0.84814309167E+02 -0.38472284495E+02  0.12500000000E+03  0.80419002446E+02 0. -1.
        -24    1    1    2    0    0 -0.22004552526E+02  0.84814309167E+02  0.38472284495E+02  0.12500000000E+03  0.80419002446E+02 0.  1.
</event>
<event>
 4    1  0.1586888E-001  0.1250000E+03  0.7546771E-02  0.1126479E+00
        -11   -1    0    0    0    0  0.00000000000E+00  0.00000000000E+00  0.12500000000E+03  0.12500000000E+03  0.00000000000E+00 0.  1.
         11   -1    0    0    0    0 -0.00000000000E+00 -0.00000000000E+00 -0.12500000000E+03  0.12500000000E+03  0.00000000000E+00 0. -1.
         24    1    1    2    0    0 -0.69734170431E+02 -0.28350897418E+02  0.59086006258E+02  0.12500000000E+03  0.80419002446E+02 0.  0.
        -24    1    1    2    0    0  0.69734170431E+02  0.28350897418E+02 -0.59086006258E+02  0.12500000000E+03  0.80419002446E+02 0.  1.
</event>
<event>
 4    1  0.1586888E-001  0.1250000E+03  0.7546771E-02  0.1126479E+00
        -11   -1    0    0    0    0  0.00000000000E+00  0.00000000000E+00  0.12500000000E+03  0.12500000000E+03  0.00000000000E+00 0.  1.
         11   -1    0    0    0    0 -0.00000000000E+00 -0.00000000000E+00 -0.12500000000E+03  0.12500000000E+03  0.00000000000E+00 0. -1.
         24    1    1    2    0    0  0.49548414257E+02  0.74082035353E+01  0.81534392809E+02  0.12500000000E+03  0.80419002446E+02 0.  1.
        -24    1    1    2    0    0 -0.49548414257E+02 -0.74082035353E+01 -0.81534392809E+02  0.12500000000E+03  0.80419002446E+02 0. -1.
</event>
<event>
 4    1  0.1586888E-001  0.1250000E+03  0.7546771E-02  0.1126479E+00
        -11   -1    0    0    0    0  0.00000000000E+00  0.00000000000E+00  0.12500000000E+03  0.12500000000E+03  0.00000000000E+00 0. -1.
         11   -1    0    0    0    0 -0.00000000000E+00 -0.00000000000E+00 -0.12500000000E+03  0.12500000000E+03  0.00000000000E+00 0.  1.
         24    1    1    2    0    0  0.91705042565E+02  0.13789102631E+02 -0.23618422099E+02  0.12500000000E+03  0.80419002446E+02 0.  0.
        -24    1    1    2    0    0 -0.91705042565E+02 -0.13789102631E+02  0.23618422099E+02  0.12500000000E+03  0.80419002446E+02 0.  0.
</event>
<event>
 4    1  0.1586888E-001  0.1250000E+03  0.7546771E-02  0.1126479E+00
        -11   -1    0    0    0    0  0.00000000000E+00  0.00000000000E+00  0.12500000000E+03  0.12500000000E+03  0.00000000000E+00 0.  1.
         11   -1    0    0    0    0 -0.00000000000E+00 -0.00000000000E+00 -0.12500000000E+03  0.12500000000E+03  0.00000000000E+00 0. -1.
         24    1    1    2    0    0  0.31728371703E+02  0.19929424968E+02  0.88056302984E+02  0.12500000000E+03  0.80419002446E+02 0.  1.
        -24    1    1    2    0    0 -0.31728371703E+02 -0.19929424968E+02 -0.88056302984E+02  0.12500000000E+03  0.80419002446E+02 0. -1.
</event>
<event>
 4    1  0.1586888E-001  0.1250000E+03  0.7546771E-02  0.1126479E+00
        -11   -1    0    0    0    0  0.00000000000E+00  0.00000000000E+00  0.12500000000E+03  0.12500000000E+03  0.00000000000E+00 0.  1.
         11   -1    0    0    0    0 -0.00000000000E+00 -0.00000000000E+00 -0.12500000000E+03  0.12500000000E+03  0.00000000000E+00 0. -1.
         24    1    1    2    0    0 -0.29869053660E+02  0.77951057050E+01  0.90580682301E+02  0.12500000000E+03  0.80419002446E+02 0.  1.
        -24    1    1    2    0    0  0.29869053660E+02 -0.77951057050E+01 -0.90580682301E+02  0.12500000000E+03  0.80419002446E+02 0. -1.
</event>
<event>
 4    1  0.1586888E-001  0.1250000E+03  0.7546771E-02  0.1126479E+00
        -11   -1    0    0    0    0  0.00000000000E+00  0.00000000000E+00  0.12500000000E+03  0.12500000000E+03  0.00000000000E+00 0.  1.
         11   -1    0    0    0    0 -0.00000000000E+00 -0.00000000000E+00 -0.12500000000E+03  0.12500000000E+03  0.00000000000E+00 0. -1.
         24    1    1    2    0    0 -0.24118051908E+02  0.28151239174E+01  0.92564456975E+02  0.12500000000E+03  0.80419002446E+02 0.  1.
        -24    1    1    2    0    0  0.24118051908E+02 -0.28151239174E+01 -0.92564456975E+02  0.12500000000E+03  0.80419002446E+02 0. -1.
</event>
<event>
 4    1  0.1586888E-001  0.1250000E+03  0.7546771E-02  0.1126479E+00
        -11   -1    0    0    0    0  0.00000000000E+00  0.00000000000E+00  0.12500000000E+03  0.12500000000E+03  0.00000000000E+00 0.  1.
         11   -1    0    0    0    0 -0.00000000000E+00 -0.00000000000E+00 -0.12500000000E+03  0.12500000000E+03  0.00000000000E+00 0. -1.
         24    1    1    2    0    0  0.21715738151E+02  0.38400808831E+02  0.84921073023E+02  0.12500000000E+03  0.80419002446E+02 0.  1.
        -24    1    1    2    0    0 -0.21715738151E+02 -0.38400808831E+02 -0.84921073023E+02  0.12500000000E+03  0.80419002446E+02 0. -1.
</event>
<event>
 4    1  0.1586888E-001  0.1250000E+03  0.7546771E-02  0.1126479E+00
        -11   -1    0    0    0    0  0.00000000000E+00  0.00000000000E+00  0.12500000000E+03  0.12500000000E+03  0.00000000000E+00 0.  1.
         11   -1    0    0    0    0 -0.00000000000E+00 -0.00000000000E+00 -0.12500000000E+03  0.12500000000E+03  0.00000000000E+00 0. -1.
         24    1    1    2    0    0 -0.27914707107E+02  0.86894172293E+00  0.91530312536E+02  0.12500000000E+03  0.80419002446E+02 0.  1.
        -24    1    1    2    0    0  0.27914707107E+02 -0.86894172293E+00 -0.91530312536E+02  0.12500000000E+03  0.80419002446E+02 0. -1.
</event>
<event>
 4    1  0.1586888E-001  0.1250000E+03  0.7546771E-02  0.1126479E+00
        -11   -1    0    0    0    0  0.00000000000E+00  0.00000000000E+00  0.12500000000E+03  0.12500000000E+03  0.00000000000E+00 0.  1.
         11   -1    0    0    0    0 -0.00000000000E+00 -0.00000000000E+00 -0.12500000000E+03  0.12500000000E+03  0.00000000000E+00 0. -1.
         24    1    1    2    0    0  0.17187353651E+02 -0.54557869326E+02  0.76719083771E+02  0.12500000000E+03  0.80419002446E+02 0.  1.
        -24    1    1    2    0    0 -0.17187353651E+02  0.54557869326E+02 -0.76719083771E+02  0.12500000000E+03  0.80419002446E+02 0. -1.
</event>
<event>
 4    1  0.1586888E-001  0.1250000E+03  0.7546771E-02  0.1126479E+00
        -11   -1    0    0    0    0  0.00000000000E+00  0.00000000000E+00  0.12500000000E+03  0.12500000000E+03  0.00000000000E+00 0.  1.
         11   -1    0    0    0    0 -0.00000000000E+00 -0.00000000000E+00 -0.12500000000E+03  0.12500000000E+03  0.00000000000E+00 0. -1.
         24    1    1    2    0    0 -0.59304137570E+02 -0.10557302339E+02  0.74359576922E+02  0.12500000000E+03  0.80419002446E+02 0.  1.
        -24    1    1    2    0    0  0.59304137570E+02  0.10557302339E+02 -0.74359576922E+02  0.12500000000E+03  0.80419002446E+02 0. -1.
</event>
<event>
 4    1  0.1586888E-001  0.1250000E+03  0.7546771E-02  0.1126479E+00
        -11   -1    0    0    0    0  0.00000000000E+00  0.00000000000E+00  0.12500000000E+03  0.12500000000E+03  0.00000000000E+00 0.  1.
         11   -1    0    0    0    0 -0.00000000000E+00 -0.00000000000E+00 -0.12500000000E+03  0.12500000000E+03  0.00000000000E+00 0. -1.
         24    1    1    2    0    0 -0.33560794784E+02 -0.50439898348E+02  0.74076134846E+02  0.12500000000E+03  0.80419002446E+02 0.  1.
        -24    1    1    2    0    0  0.33560794784E+02  0.50439898348E+02 -0.74076134846E+02  0.12500000000E+03  0.80419002446E+02 0. -1.
</event>
<event>
 4    1  0.1586888E-001  0.1250000E+03  0.7546771E-02  0.1126479E+00
        -11   -1    0    0    0    0  0.00000000000E+00  0.00000000000E+00  0.12500000000E+03  0.12500000000E+03  0.00000000000E+00 0.  1.
         11   -1    0    0    0    0 -0.00000000000E+00 -0.00000000000E+00 -0.12500000000E+03  0.12500000000E+03  0.00000000000E+00 0. -1.
         24    1    1    2    0    0 -0.18920608322E+02 -0.27905416132E+02  0.89560495626E+02  0.12500000000E+03  0.80419002446E+02 0.  1.
        -24    1    1    2    0    0  0.18920608322E+02  0.27905416132E+02 -0.89560495626E+02  0.12500000000E+03  0.80419002446E+02 0. -1.
</event>
<event>
 4    1  0.1586888E-001  0.1250000E+03  0.7546771E-02  0.1126479E+00
        -11   -1    0    0    0    0  0.00000000000E+00  0.00000000000E+00  0.12500000000E+03  0.12500000000E+03  0.00000000000E+00 0.  1.
         11   -1    0    0    0    0 -0.00000000000E+00 -0.00000000000E+00 -0.12500000000E+03  0.12500000000E+03  0.00000000000E+00 0. -1.
         24    1    1    2    0    0 -0.42152210818E+02  0.55397633535E+00  0.85910815844E+02  0.12500000000E+03  0.80419002446E+02 0.  1.
        -24    1    1    2    0    0  0.42152210818E+02 -0.55397633535E+00 -0.85910815844E+02  0.12500000000E+03  0.80419002446E+02 0. -1.
</event>
<event>
 4    1  0.1586888E-001  0.1250000E+03  0.7546771E-02  0.1126479E+00
        -11   -1    0    0    0    0  0.00000000000E+00  0.00000000000E+00  0.12500000000E+03  0.12500000000E+03  0.00000000000E+00 0.  1.
         11   -1    0    0    0    0 -0.00000000000E+00 -0.00000000000E+00 -0.12500000000E+03  0.12500000000E+03  0.00000000000E+00 0. -1.
         24    1    1    2    0    0  0.79218418808E+01  0.15824583679E+02  0.94045792135E+02  0.12500000000E+03  0.80419002446E+02 0.  1.
        -24    1    1    2    0    0 -0.79218418808E+01 -0.15824583679E+02 -0.94045792135E+02  0.12500000000E+03  0.80419002446E+02 0. -1.
</event>
<event>
 4    1  0.1586888E-001  0.1250000E+03  0.7546771E-02  0.1126479E+00
        -11   -1    0    0    0    0  0.00000000000E+00  0.00000000000E+00  0.12500000000E+03  0.12500000000E+03  0.00000000000E+00 0.  1.
         11   -1    0    0    0    0 -0.00000000000E+00 -0.00000000000E+00 -0.12500000000E+03  0.12500000000E+03  0.00000000000E+00 0. -1.
         24    1    1    2    0    0 -0.24139260829E+02 -0.32813338955E+02  0.86593099719E+02  0.12500000000E+03  0.80419002446E+02 0.  1.
        -24    1    1    2    0    0  0.24139260829E+02  0.32813338955E+02 -0.86593099719E+02  0.12500000000E+03  0.80419002446E+02 0. -1.
</event>
<event>
 4    1  0.1586888E-001  0.1250000E+03  0.7546771E-02  0.1126479E+00
        -11   -1    0    0    0    0  0.00000000000E+00  0.00000000000E+00  0.12500000000E+03  0.12500000000E+03  0.00000000000E+00 0.  1.
         11   -1    0    0    0    0 -0.00000000000E+00 -0.00000000000E+00 -0.12500000000E+03  0.12500000000E+03  0.00000000000E+00 0. -1.
         24    1    1    2    0    0 -0.75599579922E+01  0.85504545385E+02  0.42303709048E+02  0.12500000000E+03  0.80419002446E+02 0.  1.
        -24    1    1    2    0    0  0.75599579922E+01 -0.85504545385E+02 -0.42303709048E+02  0.12500000000E+03  0.80419002446E+02 0. -1.
</event>
<event>
 4    1  0.1586888E-001  0.1250000E+03  0.7546771E-02  0.1126479E+00
        -11   -1    0    0    0    0  0.00000000000E+00  0.00000000000E+00  0.12500000000E+03  0.12500000000E+03  0.00000000000E+00 0.  1.
         11   -1    0    0    0    0 -0.00000000000E+00 -0.00000000000E+00 -0.12500000000E+03  0.12500000000E+03  0.00000000000E+00 0. -1.
         24    1    1    2    0    0  0.27137176498E+02  0.31859804707E+02  0.86059924131E+02  0.12500000000E+03  0.80419002446E+02 0.  1.
        -24    1    1    2    0    0 -0.27137176498E+02 -0.31859804707E+02 -0.86059924131E+02  0.12500000000E+03  0.80419002446E+02 0. -1.
</event>
<event>
 4    1  0.1586888E-001  0.1250000E+03  0.7546771E-02  0.1126479E+00
        -11   -1    0    0    0    0  0.00000000000E+00  0.00000000000E+00  0.12500000000E+03  0.12500000000E+03  0.00000000000E+00 0.  1.
         11   -1    0    0    0    0 -0.00000000000E+00 -0.00000000000E+00 -0.12500000000E+03  0.12500000000E+03  0.00000000000E+00 0. -1.
         24    1    1    2    0    0  0.11421471996E+02 -0.13586935594E+02  0.94035786827E+02  0.12500000000E+03  0.80419002446E+02 0.  1.
        -24    1    1    2    0    0 -0.11421471996E+02  0.13586935594E+02 -0.94035786827E+02  0.12500000000E+03  0.80419002446E+02 0. -1.
</event>
<event>
 4    1  0.1586888E-001  0.1250000E+03  0.7546771E-02  0.1126479E+00
        -11   -1    0    0    0    0  0.00000000000E+00  0.00000000000E+00  0.12500000000E+03  0.12500000000E+03  0.00000000000E+00 0.  1.
         11   -1    0    0    0    0 -0.00000000000E+00 -0.00000000000E+00 -0.12500000000E+03  0.12500000000E+03  0.00000000000E+00 0. -1.
         24    1    1    2    0    0  0.57942101454E+02 -0.10916297454E+02  0.75374606962E+02  0.12500000000E+03  0.80419002446E+02 0.  1.
        -24    1    1    2    0    0 -0.57942101454E+02  0.10916297454E+02 -0.75374606962E+02  0.12500000000E+03  0.80419002446E+02 0. -1.
</event>
<event>
 4    1  0.1586888E-001  0.1250000E+03  0.7546771E-02  0.1126479E+00
        -11   -1    0    0    0    0  0.00000000000E+00  0.00000000000E+00  0.12500000000E+03  0.12500000000E+03  0.00000000000E+00 0.  1.
         11   -1    0    0    0    0 -0.00000000000E+00 -0.00000000000E+00 -0.12500000000E+03  0.12500000000E+03  0.00000000000E+00 0. -1.
         24    1    1    2    0    0 -0.28420821220E+02 -0.47553063452E+02  0.78030424343E+02  0.12500000000E+03  0.80419002446E+02 0.  1.
        -24    1    1    2    0    0  0.28420821220E+02  0.47553063452E+02 -0.78030424343E+02  0.12500000000E+03  0.80419002446E+02 0. -1.
</event>
<event>
 4    1  0.1586888E-001  0.1250000E+03  0.7546771E-02  0.1126479E+00
        -11   -1    0    0    0    0  0.00000000000E+00  0.00000000000E+00  0.12500000000E+03  0.12500000000E+03  0.00000000000E+00 0.  1.
         11   -1    0    0    0    0 -0.00000000000E+00 -0.00000000000E+00 -0.12500000000E+03  0.12500000000E+03  0.00000000000E+00 0. -1.
         24    1    1    2    0    0 -0.60869425350E+02  0.65711848024E+02 -0.33684568165E+02  0.12500000000E+03  0.80419002446E+02 0. -1.
        -24    1    1    2    0    0  0.60869425350E+02 -0.65711848024E+02  0.33684568165E+02  0.12500000000E+03  0.80419002446E+02 0.  1.
</event>
<event>
 4    1  0.1586888E-001  0.1250000E+03  0.7546771E-02  0.1126479E+00
        -11   -1    0    0    0    0  0.00000000000E+00  0.00000000000E+00  0.12500000000E+03  0.12500000000E+03  0.00000000000E+00 0.  1.
         11   -1    0    0    0    0 -0.00000000000E+00 -0.00000000000E+00 -0.12500000000E+03  0.12500000000E+03  0.00000000000E+00 0. -1.
         24    1    1    2    0    0 -0.84707449430E+01  0.14922290740E+01  0.95308991067E+02  0.12500000000E+03  0.80419002446E+02 0.  1.
        -24    1    1    2    0    0  0.84707449430E+01 -0.14922290740E+01 -0.95308991067E+02  0.12500000000E+03  0.80419002446E+02 0.  0.
</event>
<event>
 4    1  0.1586888E-001  0.1250000E+03  0.7546771E-02  0.1126479E+00
        -11   -1    0    0    0    0  0.00000000000E+00  0.00000000000E+00  0.12500000000E+03  0.12500000000E+03  0.00000000000E+00 0.  1.
         11   -1    0    0    0    0 -0.00000000000E+00 -0.00000000000E+00 -0.12500000000E+03  0.12500000000E+03  0.00000000000E+00 0. -1.
         24    1    1    2    0    0 -0.47924290424E+02  0.88816494352E+01  0.82353887196E+02  0.12500000000E+03  0.80419002446E+02 0.  1.
        -24    1    1    2    0    0  0.47924290424E+02 -0.88816494352E+01 -0.82353887196E+02  0.12500000000E+03  0.80419002446E+02 0. -1.
</event>
<event>
 4    1  0.1586888E-001  0.1250000E+03  0.7546771E-02  0.1126479E+00
        -11   -1    0    0    0    0  0.00000000000E+00  0.00000000000E+00  0.12500000000E+03  0.12500000000E+03  0.00000000000E+00 0.  1.
         11   -1    0    0    0    0 -0.00000000000E+00 -0.00000000000E+00 -0.12500000000E+03  0.12500000000E+03  0.00000000000E+00 0. -1.
         24    1    1    2    0    0  0.23312904022E+02 -0.89895274489E+02  0.23089655178E+02  0.12500000000E+03  0.80419002446E+02 0.  1.
        -24    1    1    2    0    0 -0.23312904022E+02  0.89895274489E+02 -0.23089655178E+02  0.12500000000E+03  0.80419002446E+02 0. -1.
</event>
<event>
 4    1  0.1586888E-001  0.1250000E+03  0.7546771E-02  0.1126479E+00
        -11   -1    0    0    0    0  0.00000000000E+00  0.00000000000E+00  0.12500000000E+03  0.12500000000E+03  0.00000000000E+00 0.  1.
         11   -1    0    0    0    0 -0.00000000000E+00 -0.00000000000E+00 -0.12500000000E+03  0.12500000000E+03  0.00000000000E+00 0. -1.
         24    1    1    2    0    0 -0.39799122884E+01  0.53147394048E+02  0.79481437139E+02  0.12500000000E+03  0.80419002446E+02 0.  1.
        -24    1    1    2    0    0  0.39799122884E+01 -0.53147394048E+02 -0.79481437139E+02  0.12500000000E+03  0.80419002446E+02 0. -1.
</event>
<event>
 4    1  0.1586888E-001  0.1250000E+03  0.7546771E-02  0.1126479E+00
        -11   -1    0    0    0    0  0.00000000000E+00  0.00000000000E+00  0.12500000000E+03  0.12500000000E+03  0.00000000000E+00 0.  1.
         11   -1    0    0    0    0 -0.00000000000E+00 -0.00000000000E+00 -0.12500000000E+03  0.12500000000E+03  0.00000000000E+00 0. -1.
         24    1    1    2    0    0 -0.13646353148E+02 -0.25654778332E+02  0.91177812214E+02  0.12500000000E+03  0.80419002446E+02 0.  1.
        -24    1    1    2    0    0  0.13646353148E+02  0.25654778332E+02 -0.91177812214E+02  0.12500000000E+03  0.80419002446E+02 0. -1.
</event>
<event>
 4    1  0.1586888E-001  0.1250000E+03  0.7546771E-02  0.1126479E+00
        -11   -1    0    0    0    0  0.00000000000E+00  0.00000000000E+00  0.12500000000E+03  0.12500000000E+03  0.00000000000E+00 0.  1.
         11   -1    0    0    0    0 -0.00000000000E+00 -0.00000000000E+00 -0.12500000000E+03  0.12500000000E+03  0.00000000000E+00 0. -1.
         24    1    1    2    0    0 -0.23370443285E+02  0.58032967935E+02  0.72413956244E+02  0.12500000000E+03  0.80419002446E+02 0.  1.
        -24    1    1    2    0    0  0.23370443285E+02 -0.58032967935E+02 -0.72413956244E+02  0.12500000000E+03  0.80419002446E+02 0. -1.
</event>
<event>
 4    1  0.1586888E-001  0.1250000E+03  0.7546771E-02  0.1126479E+00
        -11   -1    0    0    0    0  0.00000000000E+00  0.00000000000E+00  0.12500000000E+03  0.12500000000E+03  0.00000000000E+00 0.  1.
         11   -1    0    0    0    0 -0.00000000000E+00 -0.00000000000E+00 -0.12500000000E+03  0.12500000000E+03  0.00000000000E+00 0. -1.
         24    1    1    2    0    0  0.81955495633E+01 -0.28338439887E+01  0.95302604063E+02  0.12500000000E+03  0.80419002446E+02 0.  1.
        -24    1    1    2    0    0 -0.81955495633E+01  0.28338439887E+01 -0.95302604063E+02  0.12500000000E+03  0.80419002446E+02 0.  0.
</event>
<event>
 4    1  0.1586888E-001  0.1250000E+03  0.7546771E-02  0.1126479E+00
        -11   -1    0    0    0    0  0.00000000000E+00  0.00000000000E+00  0.12500000000E+03  0.12500000000E+03  0.00000000000E+00 0.  1.
         11   -1    0    0    0    0 -0.00000000000E+00 -0.00000000000E+00 -0.12500000000E+03  0.12500000000E+03  0.00000000000E+00 0. -1.
         24    1    1    2    0    0  0.27176972551E+02 -0.44103123535E+02  0.80461858685E+02  0.12500000000E+03  0.80419002446E+02 0.  1.
        -24    1    1    2    0    0 -0.27176972551E+02  0.44103123535E+02 -0.80461858685E+02  0.12500000000E+03  0.80419002446E+02 0. -1.
</event>
<event>
 4    1  0.1586888E-001  0.1250000E+03  0.7546771E-02  0.1126479E+00
        -11   -1    0    0    0    0  0.00000000000E+00  0.00000000000E+00  0.12500000000E+03  0.12500000000E+03  0.00000000000E+00 0.  1.
         11   -1    0    0    0    0 -0.00000000000E+00 -0.00000000000E+00 -0.12500000000E+03  0.12500000000E+03  0.00000000000E+00 0. -1.
         24    1    1    2    0    0  0.26666302471E+02 -0.86490945198E+02  0.31080681411E+02  0.12500000000E+03  0.80419002446E+02 0.  1.
        -24    1    1    2    0    0 -0.26666302471E+02  0.86490945198E+02 -0.31080681411E+02  0.12500000000E+03  0.80419002446E+02 0.  0.
</event>
<event>
 4    1  0.1586888E-001  0.1250000E+03  0.7546771E-02  0.1126479E+00
        -11   -1    0    0    0    0  0.00000000000E+00  0.00000000000E+00  0.12500000000E+03  0.12500000000E+03  0.00000000000E+00 0.  1.
         11   -1    0    0    0    0 -0.00000000000E+00 -0.00000000000E+00 -0.12500000000E+03  0.12500000000E+03  0.00000000000E+00 0. -1.
         24    1    1    2    0    0 -0.53082342393E+02 -0.10735528845E+02  0.78897385204E+02  0.12500000000E+03  0.80419002446E+02 0.  1.
        -24    1    1    2    0    0  0.53082342393E+02  0.10735528845E+02 -0.78897385204E+02  0.12500000000E+03  0.80419002446E+02 0. -1.
</event>
<event>
 4    1  0.1586888E-001  0.1250000E+03  0.7546771E-02  0.1126479E+00
        -11   -1    0    0    0    0  0.00000000000E+00  0.00000000000E+00  0.12500000000E+03  0.12500000000E+03  0.00000000000E+00 0.  1.
         11   -1    0    0    0    0 -0.00000000000E+00 -0.00000000000E+00 -0.12500000000E+03  0.12500000000E+03  0.00000000000E+00 0. -1.
         24    1    1    2    0    0 -0.83862247586E+01 -0.40906402156E+02  0.86105293348E+02  0.12500000000E+03  0.80419002446E+02 0.  1.
        -24    1    1    2    0    0  0.83862247586E+01  0.40906402156E+02 -0.86105293348E+02  0.12500000000E+03  0.80419002446E+02 0. -1.
</event>
<event>
 4    1  0.1586888E-001  0.1250000E+03  0.7546771E-02  0.1126479E+00
        -11   -1    0    0    0    0  0.00000000000E+00  0.00000000000E+00  0.12500000000E+03  0.12500000000E+03  0.00000000000E+00 0.  1.
         11   -1    0    0    0    0 -0.00000000000E+00 -0.00000000000E+00 -0.12500000000E+03  0.12500000000E+03  0.00000000000E+00 0. -1.
         24    1    1    2    0    0  0.14691846913E+02 -0.42838798873E+02  0.84301666597E+02  0.12500000000E+03  0.80419002446E+02 0.  1.
        -24    1    1    2    0    0 -0.14691846913E+02  0.42838798873E+02 -0.84301666597E+02  0.12500000000E+03  0.80419002446E+02 0. -1.
</event>
<event>
 4    1  0.1586888E-001  0.1250000E+03  0.7546771E-02  0.1126479E+00
        -11   -1    0    0    0    0  0.00000000000E+00  0.00000000000E+00  0.12500000000E+03  0.12500000000E+03  0.00000000000E+00 0.  1.
         11   -1    0    0    0    0 -0.00000000000E+00 -0.00000000000E+00 -0.12500000000E+03  0.12500000000E+03  0.00000000000E+00 0. -1.
         24    1    1    2    0    0 -0.66042037318E+02  0.67523006963E+01  0.68924885113E+02  0.12500000000E+03  0.80419002446E+02 0.  1.
        -24    1    1    2    0    0  0.66042037318E+02 -0.67523006963E+01 -0.68924885113E+02  0.12500000000E+03  0.80419002446E+02 0. -1.
</event>
<event>
 4    1  0.1586888E-001  0.1250000E+03  0.7546771E-02  0.1126479E+00
        -11   -1    0    0    0    0  0.00000000000E+00  0.00000000000E+00  0.12500000000E+03  0.12500000000E+03  0.00000000000E+00 0.  1.
         11   -1    0    0    0    0 -0.00000000000E+00 -0.00000000000E+00 -0.12500000000E+03  0.12500000000E+03  0.00000000000E+00 0. -1.
         24    1    1    2    0    0  0.87308617867E+02 -0.10081233548E+02  0.37859715026E+02  0.12500000000E+03  0.80419002446E+02 0.  1.
        -24    1    1    2    0    0 -0.87308617867E+02  0.10081233548E+02 -0.37859715026E+02  0.12500000000E+03  0.80419002446E+02 0. -1.
</event>
<event>
 4    1  0.1586888E-001  0.1250000E+03  0.7546771E-02  0.1126479E+00
        -11   -1    0    0    0    0  0.00000000000E+00  0.00000000000E+00  0.12500000000E+03  0.12500000000E+03  0.00000000000E+00 0.  1.
         11   -1    0    0    0    0 -0.00000000000E+00 -0.00000000000E+00 -0.12500000000E+03  0.12500000000E+03  0.00000000000E+00 0. -1.
         24    1    1    2    0    0 -0.29966220002E+02 -0.37234653050E+02  0.82905912435E+02  0.12500000000E+03  0.80419002446E+02 0.  1.
        -24    1    1    2    0    0  0.29966220002E+02  0.37234653050E+02 -0.82905912435E+02  0.12500000000E+03  0.80419002446E+02 0. -1.
</event>
<event>
 4    1  0.1586888E-001  0.1250000E+03  0.7546771E-02  0.1126479E+00
        -11   -1    0    0    0    0  0.00000000000E+00  0.00000000000E+00  0.12500000000E+03  0.12500000000E+03  0.00000000000E+00 0.  1.
         11   -1    0    0    0    0 -0.00000000000E+00 -0.00000000000E+00 -0.12500000000E+03  0.12500000000E+03  0.00000000000E+00 0. -1.
         24    1    1    2    0    0  0.93759205319E+02  0.19156180970E+02 -0.19024752321E+00  0.12500000000E+03  0.80419002446E+02 0.  1.
        -24    1    1    2    0    0 -0.93759205319E+02 -0.19156180970E+02  0.19024752321E+00  0.12500000000E+03  0.80419002446E+02 0. -1.
</event>
<event>
 4    1  0.1586888E-001  0.1250000E+03  0.7546771E-02  0.1126479E+00
        -11   -1    0    0    0    0  0.00000000000E+00  0.00000000000E+00  0.12500000000E+03  0.12500000000E+03  0.00000000000E+00 0.  1.
         11   -1    0    0    0    0 -0.00000000000E+00 -0.00000000000E+00 -0.12500000000E+03  0.12500000000E+03  0.00000000000E+00 0. -1.
         24    1    1    2    0    0 -0.38253797040E+02  0.17482915976E+02  0.85958005483E+02  0.12500000000E+03  0.80419002446E+02 0.  1.
        -24    1    1    2    0    0  0.38253797040E+02 -0.17482915976E+02 -0.85958005483E+02  0.12500000000E+03  0.80419002446E+02 0. -1.
</event>
<event>
 4    1  0.1586888E-001  0.1250000E+03  0.7546771E-02  0.1126479E+00
        -11   -1    0    0    0    0  0.00000000000E+00  0.00000000000E+00  0.12500000000E+03  0.12500000000E+03  0.00000000000E+00 0.  1.
         11   -1    0    0    0    0 -0.00000000000E+00 -0.00000000000E+00 -0.12500000000E+03  0.12500000000E+03  0.00000000000E+00 0. -1.
         24    1    1    2    0    0 -0.55250115618E+02 -0.59209519125E+02  0.50984719425E+02  0.12500000000E+03  0.80419002446E+02 0.  1.
        -24    1    1    2    0    0  0.55250115618E+02  0.59209519125E+02 -0.50984719425E+02  0.12500000000E+03  0.80419002446E+02 0. -1.
</event>
<event>
 4    1  0.1586888E-001  0.1250000E+03  0.7546771E-02  0.1126479E+00
        -11   -1    0    0    0    0  0.00000000000E+00  0.00000000000E+00  0.12500000000E+03  0.12500000000E+03  0.00000000000E+00 0.  1.
         11   -1    0    0    0    0 -0.00000000000E+00 -0.00000000000E+00 -0.12500000000E+03  0.12500000000E+03  0.00000000000E+00 0. -1.
         24    1    1    2    0    0  0.59506562535E+02 -0.69285281840E+02  0.28571012955E+02  0.12500000000E+03  0.80419002446E+02 0.  1.
        -24    1    1    2    0    0 -0.59506562535E+02  0.69285281840E+02 -0.28571012955E+02  0.12500000000E+03  0.80419002446E+02 0. -1.
</event>
<event>
 4    1  0.1586888E-001  0.1250000E+03  0.7546771E-02  0.1126479E+00
        -11   -1    0    0    0    0  0.00000000000E+00  0.00000000000E+00  0.12500000000E+03  0.12500000000E+03  0.00000000000E+00 0.  1.
         11   -1    0    0    0    0 -0.00000000000E+00 -0.00000000000E+00 -0.12500000000E+03  0.12500000000E+03  0.00000000000E+00 0. -1.
         24    1    1    2    0    0 -0.53520866236E+02 -0.56772959731E+02  0.55408771565E+02  0.12500000000E+03  0.80419002446E+02 0.  1.
        -24    1    1    2    0    0  0.53520866236E+02  0.56772959731E+02 -0.55408771565E+02  0.12500000000E+03  0.80419002446E+02 0. -1.
</event>
<event>
 4    1  0.1586888E-001  0.1250000E+03  0.7546771E-02  0.1126479E+00
        -11   -1    0    0    0    0  0.00000000000E+00  0.00000000000E+00  0.12500000000E+03  0.12500000000E+03  0.00000000000E+00 0.  1.
         11   -1    0    0    0    0 -0.00000000000E+00 -0.00000000000E+00 -0.12500000000E+03  0.12500000000E+03  0.00000000000E+00 0. -1.
         24    1    1    2    0    0  0.23945271004E+02 -0.15492512489E+01  0.92639127062E+02  0.12500000000E+03  0.80419002446E+02 0.  1.
        -24    1    1    2    0    0 -0.23945271004E+02  0.15492512489E+01 -0.92639127062E+02  0.12500000000E+03  0.80419002446E+02 0. -1.
</event>
<event>
 4    1  0.1586888E-001  0.1250000E+03  0.7546771E-02  0.1126479E+00
        -11   -1    0    0    0    0  0.00000000000E+00  0.00000000000E+00  0.12500000000E+03  0.12500000000E+03  0.00000000000E+00 0.  1.
         11   -1    0    0    0    0 -0.00000000000E+00 -0.00000000000E+00 -0.12500000000E+03  0.12500000000E+03  0.00000000000E+00 0. -1.
         24    1    1    2    0    0 -0.35336444251E+02 -0.49984893158E+02  0.73556986136E+02  0.12500000000E+03  0.80419002446E+02 0.  1.
        -24    1    1    2    0    0  0.35336444251E+02  0.49984893158E+02 -0.73556986136E+02  0.12500000000E+03  0.80419002446E+02 0. -1.
</event>
<event>
 4    1  0.1586888E-001  0.1250000E+03  0.7546771E-02  0.1126479E+00
        -11   -1    0    0    0    0  0.00000000000E+00  0.00000000000E+00  0.12500000000E+03  0.12500000000E+03  0.00000000000E+00 0.  1.
         11   -1    0    0    0    0 -0.00000000000E+00 -0.00000000000E+00 -0.12500000000E+03  0.12500000000E+03  0.00000000000E+00 0. -1.
         24    1    1    2    0    0 -0.21980038304E+01 -0.86131516390E+02 -0.41645104263E+02  0.12500000000E+03  0.80419002446E+02 0.  1.
        -24    1    1    2    0    0  0.21980038304E+01  0.86131516390E+02  0.41645104263E+02  0.12500000000E+03  0.80419002446E+02 0. -1.
</event>
<event>
 4    1  0.1586888E-001  0.1250000E+03  0.7546771E-02  0.1126479E+00
        -11   -1    0    0    0    0  0.00000000000E+00  0.00000000000E+00  0.12500000000E+03  0.12500000000E+03  0.00000000000E+00 0.  1.
         11   -1    0    0    0    0 -0.00000000000E+00 -0.00000000000E+00 -0.12500000000E+03  0.12500000000E+03  0.00000000000E+00 0. -1.
         24    1    1    2    0    0  0.67726536224E+02 -0.59839421424E+02  0.31466553361E+02  0.12500000000E+03  0.80419002446E+02 0.  1.
        -24    1    1    2    0    0 -0.67726536224E+02  0.59839421424E+02 -0.31466553361E+02  0.12500000000E+03  0.80419002446E+02 0. -1.
</event>
<event>
 4    1  0.1586888E-001  0.1250000E+03  0.7546771E-02  0.1126479E+00
        -11   -1    0    0    0    0  0.00000000000E+00  0.00000000000E+00  0.12500000000E+03  0.12500000000E+03  0.00000000000E+00 0.  1.
         11   -1    0    0    0    0 -0.00000000000E+00 -0.00000000000E+00 -0.12500000000E+03  0.12500000000E+03  0.00000000000E+00 0. -1.
         24    1    1    2    0    0 -0.13633109777E+02 -0.66388614844E+02  0.67560892405E+02  0.12500000000E+03  0.80419002446E+02 0.  1.
        -24    1    1    2    0    0  0.13633109777E+02  0.66388614844E+02 -0.67560892405E+02  0.12500000000E+03  0.80419002446E+02 0. -1.
</event>
<event>
 4    1  0.1586888E-001  0.1250000E+03  0.7546771E-02  0.1126479E+00
        -11   -1    0    0    0    0  0.00000000000E+00  0.00000000000E+00  0.12500000000E+03  0.12500000000E+03  0.00000000000E+00 0.  1.
         11   -1    0    0    0    0 -0.00000000000E+00 -0.00000000000E+00 -0.12500000000E+03  0.12500000000E+03  0.00000000000E+00 0. -1.
         24    1    1    2    0    0  0.49726090632E+02  0.86338020970E+01  0.81305334495E+02  0.12500000000E+03  0.80419002446E+02 0.  1.
        -24    1    1    2    0    0 -0.49726090632E+02 -0.86338020970E+01 -0.81305334495E+02  0.12500000000E+03  0.80419002446E+02 0. -1.
</event>
<event>
 4    1  0.1586888E-001  0.1250000E+03  0.7546771E-02  0.1126479E+00
        -11   -1    0    0    0    0  0.00000000000E+00  0.00000000000E+00  0.12500000000E+03  0.12500000000E+03  0.00000000000E+00 0.  1.
         11   -1    0    0    0    0 -0.00000000000E+00 -0.00000000000E+00 -0.12500000000E+03  0.12500000000E+03  0.00000000000E+00 0. -1.
         24    1    1    2    0    0  0.82922333335E+02 -0.18176462262E+01  0.47732241117E+02  0.12500000000E+03  0.80419002446E+02 0.  1.
        -24    1    1    2    0    0 -0.82922333335E+02  0.18176462262E+01 -0.47732241117E+02  0.12500000000E+03  0.80419002446E+02 0. -1.
</event>
<event>
 4    1  0.1586888E-001  0.1250000E+03  0.7546771E-02  0.1126479E+00
        -11   -1    0    0    0    0  0.00000000000E+00  0.00000000000E+00  0.12500000000E+03  0.12500000000E+03  0.00000000000E+00 0.  1.
         11   -1    0    0    0    0 -0.00000000000E+00 -0.00000000000E+00 -0.12500000000E+03  0.12500000000E+03  0.00000000000E+00 0. -1.
         24    1    1    2    0    0  0.34282662286E+02  0.52127450133E+02  0.72561780951E+02  0.12500000000E+03  0.80419002446E+02 0.  1.
        -24    1    1    2    0    0 -0.34282662286E+02 -0.52127450133E+02 -0.72561780951E+02  0.12500000000E+03  0.80419002446E+02 0. -1.
</event>
<event>
 4    1  0.1586888E-001  0.1250000E+03  0.7546771E-02  0.1126479E+00
        -11   -1    0    0    0    0  0.00000000000E+00  0.00000000000E+00  0.12500000000E+03  0.12500000000E+03  0.00000000000E+00 0.  1.
         11   -1    0    0    0    0 -0.00000000000E+00 -0.00000000000E+00 -0.12500000000E+03  0.12500000000E+03  0.00000000000E+00 0. -1.
         24    1    1    2    0    0  0.29014558688E+01  0.59183995288E+02  0.75143997107E+02  0.12500000000E+03  0.80419002446E+02 0.  0.
        -24    1    1    2    0    0 -0.29014558688E+01 -0.59183995288E+02 -0.75143997107E+02  0.12500000000E+03  0.80419002446E+02 0.  1.
</event>
<event>
 4    1  0.1586888E-001  0.1250000E+03  0.7546771E-02  0.1126479E+00
        -11   -1    0    0    0    0  0.00000000000E+00  0.00000000000E+00  0.12500000000E+03  0.12500000000E+03  0.00000000000E+00 0.  1.
         11   -1    0    0    0    0 -0.00000000000E+00 -0.00000000000E+00 -0.12500000000E+03  0.12500000000E+03  0.00000000000E+00 0. -1.
         24    1    1    2    0    0  0.40874247426E+02 -0.30235789645E+02  0.81073281465E+02  0.12500000000E+03  0.80419002446E+02 0.  1.
        -24    1    1    2    0    0 -0.40874247426E+02  0.30235789645E+02 -0.81073281465E+02  0.12500000000E+03  0.80419002446E+02 0. -1.
</event>
<event>
 4    1  0.1586888E-001  0.1250000E+03  0.7546771E-02  0.1126479E+00
        -11   -1    0    0    0    0  0.00000000000E+00  0.00000000000E+00  0.12500000000E+03  0.12500000000E+03  0.00000000000E+00 0.  1.
         11   -1    0    0    0    0 -0.00000000000E+00 -0.00000000000E+00 -0.12500000000E+03  0.12500000000E+03  0.00000000000E+00 0. -1.
         24    1    1    2    0    0  0.60543074374E+02 -0.21084956479E+02  0.71047482723E+02  0.12500000000E+03  0.80419002446E+02 0.  1.
        -24    1    1    2    0    0 -0.60543074374E+02  0.21084956479E+02 -0.71047482723E+02  0.12500000000E+03  0.80419002446E+02 0. -1.
</event>
<event>
 4    1  0.1586888E-001  0.1250000E+03  0.7546771E-02  0.1126479E+00
        -11   -1    0    0    0    0  0.00000000000E+00  0.00000000000E+00  0.12500000000E+03  0.12500000000E+03  0.00000000000E+00 0.  1.
         11   -1    0    0    0    0 -0.00000000000E+00 -0.00000000000E+00 -0.12500000000E+03  0.12500000000E+03  0.00000000000E+00 0. -1.
         24    1    1    2    0    0 -0.13001202553E+02  0.75810393844E+02  0.56934497126E+02  0.12500000000E+03  0.80419002446E+02 0.  1.
        -24    1    1    2    0    0  0.13001202553E+02 -0.75810393844E+02 -0.56934497126E+02  0.12500000000E+03  0.80419002446E+02 0. -1.
</event>
<event>
 4    1  0.1586888E-001  0.1250000E+03  0.7546771E-02  0.1126479E+00
        -11   -1    0    0    0    0  0.00000000000E+00  0.00000000000E+00  0.12500000000E+03  0.12500000000E+03  0.00000000000E+00 0.  1.
         11   -1    0    0    0    0 -0.00000000000E+00 -0.00000000000E+00 -0.12500000000E+03  0.12500000000E+03  0.00000000000E+00 0. -1.
         24    1    1    2    0    0 -0.18891845648E+02 -0.59857849107E+02  0.72235172278E+02  0.12500000000E+03  0.80419002446E+02 0.  1.
        -24    1    1    2    0    0  0.18891845648E+02  0.59857849107E+02 -0.72235172278E+02  0.12500000000E+03  0.80419002446E+02 0. -1.
</event>
<event>
 4    1  0.1586888E-001  0.1250000E+03  0.7546771E-02  0.1126479E+00
        -11   -1    0    0    0    0  0.00000000000E+00  0.00000000000E+00  0.12500000000E+03  0.12500000000E+03  0.00000000000E+00 0.  1.
         11   -1    0    0    0    0 -0.00000000000E+00 -0.00000000000E+00 -0.12500000000E+03  0.12500000000E+03  0.00000000000E+00 0. -1.
         24    1    1    2    0    0  0.24554589807E+02 -0.42866019316E+02  0.81959505568E+02  0.12500000000E+03  0.80419002446E+02 0.  1.
        -24    1    1    2    0    0 -0.24554589807E+02  0.42866019316E+02 -0.81959505568E+02  0.12500000000E+03  0.80419002446E+02 0. -1.
</event>
<event>
 4    1  0.1586888E-001  0.1250000E+03  0.7546771E-02  0.1126479E+00
        -11   -1    0    0    0    0  0.00000000000E+00  0.00000000000E+00  0.12500000000E+03  0.12500000000E+03  0.00000000000E+00 0.  1.
         11   -1    0    0    0    0 -0.00000000000E+00 -0.00000000000E+00 -0.12500000000E+03  0.12500000000E+03  0.00000000000E+00 0. -1.
         24    1    1    2    0    0  0.75204787127E+01 -0.75086415894E+02  0.58849440047E+02  0.12500000000E+03  0.80419002446E+02 0.  1.
        -24    1    1    2    0    0 -0.75204787127E+01  0.75086415894E+02 -0.58849440047E+02  0.12500000000E+03  0.80419002446E+02 0. -1.
</event>
<event>
 4    1  0.1586888E-001  0.1250000E+03  0.7546771E-02  0.1126479E+00
        -11   -1    0    0    0    0  0.00000000000E+00  0.00000000000E+00  0.12500000000E+03  0.12500000000E+03  0.00000000000E+00 0.  1.
         11   -1    0    0    0    0 -0.00000000000E+00 -0.00000000000E+00 -0.12500000000E+03  0.12500000000E+03  0.00000000000E+00 0. -1.
         24    1    1    2    0    0 -0.47405920267E+02 -0.30822985701E+02  0.77203667800E+02  0.12500000000E+03  0.80419002446E+02 0.  1.
        -24    1    1    2    0    0  0.47405920267E+02  0.30822985701E+02 -0.77203667800E+02  0.12500000000E+03  0.80419002446E+02 0. -1.
</event>
<event>
 4    1  0.1586888E-001  0.1250000E+03  0.7546771E-02  0.1126479E+00
        -11   -1    0    0    0    0  0.00000000000E+00  0.00000000000E+00  0.12500000000E+03  0.12500000000E+03  0.00000000000E+00 0.  1.
         11   -1    0    0    0    0 -0.00000000000E+00 -0.00000000000E+00 -0.12500000000E+03  0.12500000000E+03  0.00000000000E+00 0. -1.
         24    1    1    2    0    0 -0.91377787368E+02 -0.26110551737E+02 -0.11230454549E+02  0.12500000000E+03  0.80419002446E+02 0. -1.
        -24    1    1    2    0    0  0.91377787368E+02  0.26110551737E+02  0.11230454549E+02  0.12500000000E+03  0.80419002446E+02 0.  1.
</event>
<event>
 4    1  0.1586888E-001  0.1250000E+03  0.7546771E-02  0.1126479E+00
        -11   -1    0    0    0    0  0.00000000000E+00  0.00000000000E+00  0.12500000000E+03  0.12500000000E+03  0.00000000000E+00 0.  1.
         11   -1    0    0    0    0 -0.00000000000E+00 -0.00000000000E+00 -0.12500000000E+03  0.12500000000E+03  0.00000000000E+00 0. -1.
         24    1    1    2    0    0  0.46594275153E+02 -0.19675588517E+02  0.81238099345E+02  0.12500000000E+03  0.80419002446E+02 0.  1.
        -24    1    1    2    0    0 -0.46594275153E+02  0.19675588517E+02 -0.81238099345E+02  0.12500000000E+03  0.80419002446E+02 0. -1.
</event>
<event>
 4    1  0.1586888E-001  0.1250000E+03  0.7546771E-02  0.1126479E+00
        -11   -1    0    0    0    0  0.00000000000E+00  0.00000000000E+00  0.12500000000E+03  0.12500000000E+03  0.00000000000E+00 0.  1.
         11   -1    0    0    0    0 -0.00000000000E+00 -0.00000000000E+00 -0.12500000000E+03  0.12500000000E+03  0.00000000000E+00 0. -1.
         24    1    1    2    0    0 -0.86713253564E+02  0.45742458617E+01  0.40220293097E+02  0.12500000000E+03  0.80419002446E+02 0.  1.
        -24    1    1    2    0    0  0.86713253564E+02 -0.45742458617E+01 -0.40220293097E+02  0.12500000000E+03  0.80419002446E+02 0.  0.
</event>
<event>
 4    1  0.1586888E-001  0.1250000E+03  0.7546771E-02  0.1126479E+00
        -11   -1    0    0    0    0  0.00000000000E+00  0.00000000000E+00  0.12500000000E+03  0.12500000000E+03  0.00000000000E+00 0.  1.
         11   -1    0    0    0    0 -0.00000000000E+00 -0.00000000000E+00 -0.12500000000E+03  0.12500000000E+03  0.00000000000E+00 0. -1.
         24    1    1    2    0    0 -0.49904959518E+02  0.22228013675E+02  0.78569679070E+02  0.12500000000E+03  0.80419002446E+02 0.  1.
        -24    1    1    2    0    0  0.49904959518E+02 -0.22228013675E+02 -0.78569679070E+02  0.12500000000E+03  0.80419002446E+02 0. -1.
</event>
<event>
 4    1  0.1586888E-001  0.1250000E+03  0.7546771E-02  0.1126479E+00
        -11   -1    0    0    0    0  0.00000000000E+00  0.00000000000E+00  0.12500000000E+03  0.12500000000E+03  0.00000000000E+00 0.  1.
         11   -1    0    0    0    0 -0.00000000000E+00 -0.00000000000E+00 -0.12500000000E+03  0.12500000000E+03  0.00000000000E+00 0. -1.
         24    1    1    2    0    0 -0.68625752272E+02 -0.15670585889E+02 -0.64828411276E+02  0.12500000000E+03  0.80419002446E+02 0.  0.
        -24    1    1    2    0    0  0.68625752272E+02  0.15670585889E+02  0.64828411276E+02  0.12500000000E+03  0.80419002446E+02 0.  1.
</event>
<event>
 4    1  0.1586888E-001  0.1250000E+03  0.7546771E-02  0.1126479E+00
        -11   -1    0    0    0    0  0.00000000000E+00  0.00000000000E+00  0.12500000000E+03  0.12500000000E+03  0.00000000000E+00 0.  1.
         11   -1    0    0    0    0 -0.00000000000E+00 -0.00000000000E+00 -0.12500000000E+03  0.12500000000E+03  0.00000000000E+00 0. -1.
         24    1    1    2    0    0  0.93608194853E+02  0.17785983269E+02  0.88853081650E+01  0.12500000000E+03  0.80419002446E+02 0. -1.
        -24    1    1    2    0    0 -0.93608194853E+02 -0.17785983269E+02 -0.88853081650E+01  0.12500000000E+03  0.80419002446E+02 0.  1.
</event>
<event>
 4    1  0.1586888E-001  0.1250000E+03  0.7546771E-02  0.1126479E+00
        -11   -1    0    0    0    0  0.00000000000E+00  0.00000000000E+00  0.12500000000E+03  0.12500000000E+03  0.00000000000E+00 0.  1.
         11   -1    0    0    0    0 -0.00000000000E+00 -0.00000000000E+00 -0.12500000000E+03  0.12500000000E+03  0.00000000000E+00 0. -1.
         24    1    1    2    0    0 -0.29629350107E+02 -0.90108363938E+02 -0.12663664806E+02  0.12500000000E+03  0.80419002446E+02 0. -1.
        -24    1    1    2    0    0  0.29629350107E+02  0.90108363938E+02  0.12663664806E+02  0.12500000000E+03  0.80419002446E+02 0.  1.
</event>
<event>
 4    1  0.1586888E-001  0.1250000E+03  0.7546771E-02  0.1126479E+00
        -11   -1    0    0    0    0  0.00000000000E+00  0.00000000000E+00  0.12500000000E+03  0.12500000000E+03  0.00000000000E+00 0.  1.
         11   -1    0    0    0    0 -0.00000000000E+00 -0.00000000000E+00 -0.12500000000E+03  0.12500000000E+03  0.00000000000E+00 0. -1.
         24    1    1    2    0    0  0.45171416112E+02  0.14883527109E+02  0.83041000914E+02  0.12500000000E+03  0.80419002446E+02 0.  0.
        -24    1    1    2    0    0 -0.45171416112E+02 -0.14883527109E+02 -0.83041000914E+02  0.12500000000E+03  0.80419002446E+02 0.  0.
</event>
<event>
 4    1  0.1586888E-001  0.1250000E+03  0.7546771E-02  0.1126479E+00
        -11   -1    0    0    0    0  0.00000000000E+00  0.00000000000E+00  0.12500000000E+03  0.12500000000E+03  0.00000000000E+00 0.  1.
         11   -1    0    0    0    0 -0.00000000000E+00 -0.00000000000E+00 -0.12500000000E+03  0.12500000000E+03  0.00000000000E+00 0. -1.
         24    1    1    2    0    0  0.13944679419E+02  0.23164603091E+02  0.91797228309E+02  0.12500000000E+03  0.80419002446E+02 0.  1.
        -24    1    1    2    0    0 -0.13944679419E+02 -0.23164603091E+02 -0.91797228309E+02  0.12500000000E+03  0.80419002446E+02 0. -1.
</event>
<event>
 4    1  0.1586888E-001  0.1250000E+03  0.7546771E-02  0.1126479E+00
        -11   -1    0    0    0    0  0.00000000000E+00  0.00000000000E+00  0.12500000000E+03  0.12500000000E+03  0.00000000000E+00 0.  1.
         11   -1    0    0    0    0 -0.00000000000E+00 -0.00000000000E+00 -0.12500000000E+03  0.12500000000E+03  0.00000000000E+00 0. -1.
         24    1    1    2    0    0 -0.53837447789E+02  0.16443729111E+02  0.77388093620E+02  0.12500000000E+03  0.80419002446E+02 0.  1.
        -24    1    1    2    0    0  0.53837447789E+02 -0.16443729111E+02 -0.77388093620E+02  0.12500000000E+03  0.80419002446E+02 0. -1.
</event>
<event>
 4    1  0.1586888E-001  0.1250000E+03  0.7546771E-02  0.1126479E+00
        -11   -1    0    0    0    0  0.00000000000E+00  0.00000000000E+00  0.12500000000E+03  0.12500000000E+03  0.00000000000E+00 0.  1.
         11   -1    0    0    0    0 -0.00000000000E+00 -0.00000000000E+00 -0.12500000000E+03  0.12500000000E+03  0.00000000000E+00 0. -1.
         24    1    1    2    0    0 -0.57950143841E+02 -0.10199051342E+02  0.75468829501E+02  0.12500000000E+03  0.80419002446E+02 0.  1.
        -24    1    1    2    0    0  0.57950143841E+02  0.10199051342E+02 -0.75468829501E+02  0.12500000000E+03  0.80419002446E+02 0. -1.
</event>
<event>
 4    1  0.1586888E-001  0.1250000E+03  0.7546771E-02  0.1126479E+00
        -11   -1    0    0    0    0  0.00000000000E+00  0.00000000000E+00  0.12500000000E+03  0.12500000000E+03  0.00000000000E+00 0.  1.
         11   -1    0    0    0    0 -0.00000000000E+00 -0.00000000000E+00 -0.12500000000E+03  0.12500000000E+03  0.00000000000E+00 0. -1.
         24    1    1    2    0    0  0.27101106482E+02 -0.89809442054E+02  0.18909737994E+02  0.12500000000E+03  0.80419002446E+02 0.  1.
        -24    1    1    2    0    0 -0.27101106482E+02  0.89809442054E+02 -0.18909737994E+02  0.12500000000E+03  0.80419002446E+02 0. -1.
</event>
<event>
 4    1  0.1586888E-001  0.1250000E+03  0.7546771E-02  0.1126479E+00
        -11   -1    0    0    0    0  0.00000000000E+00  0.00000000000E+00  0.12500000000E+03  0.12500000000E+03  0.00000000000E+00 0.  1.
         11   -1    0    0    0    0 -0.00000000000E+00 -0.00000000000E+00 -0.12500000000E+03  0.12500000000E+03  0.00000000000E+00 0. -1.
         24    1    1    2    0    0 -0.17570458647E+02 -0.11932832214E+02  0.93309541548E+02  0.12500000000E+03  0.80419002446E+02 0.  1.
        -24    1    1    2    0    0  0.17570458647E+02  0.11932832214E+02 -0.93309541548E+02  0.12500000000E+03  0.80419002446E+02 0. -1.
</event>
<event>
 4    1  0.1586888E-001  0.1250000E+03  0.7546771E-02  0.1126479E+00
        -11   -1    0    0    0    0  0.00000000000E+00  0.00000000000E+00  0.12500000000E+03  0.12500000000E+03  0.00000000000E+00 0.  1.
         11   -1    0    0    0    0 -0.00000000000E+00 -0.00000000000E+00 -0.12500000000E+03  0.12500000000E+03  0.00000000000E+00 0. -1.
         24    1    1    2    0    0 -0.53494655196E+02  0.79344975988E+02  0.69332278646E+00  0.12500000000E+03  0.80419002446E+02 0.  1.
        -24    1    1    2    0    0  0.53494655196E+02 -0.79344975988E+02 -0.69332278646E+00  0.12500000000E+03  0.80419002446E+02 0. -1.
</event>
<event>
 4    1  0.1586888E-001  0.1250000E+03  0.7546771E-02  0.1126479E+00
        -11   -1    0    0    0    0  0.00000000000E+00  0.00000000000E+00  0.12500000000E+03  0.12500000000E+03  0.00000000000E+00 0.  1.
         11   -1    0    0    0    0 -0.00000000000E+00 -0.00000000000E+00 -0.12500000000E+03  0.12500000000E+03  0.00000000000E+00 0. -1.
         24    1    1    2    0    0 -0.63200663531E+02  0.27755398337E+02  0.66280449893E+02  0.12500000000E+03  0.80419002446E+02 0.  1.
        -24    1    1    2    0    0  0.63200663531E+02 -0.27755398337E+02 -0.66280449893E+02  0.12500000000E+03  0.80419002446E+02 0. -1.
</event>
<event>
 4    1  0.1586888E-001  0.1250000E+03  0.7546771E-02  0.1126479E+00
        -11   -1    0    0    0    0  0.00000000000E+00  0.00000000000E+00  0.12500000000E+03  0.12500000000E+03  0.00000000000E+00 0.  1.
         11   -1    0    0    0    0 -0.00000000000E+00 -0.00000000000E+00 -0.12500000000E+03  0.12500000000E+03  0.00000000000E+00 0. -1.
         24    1    1    2    0    0 -0.46947696192E+02 -0.41234147706E+01  0.83286825600E+02  0.12500000000E+03  0.80419002446E+02 0.  1.
        -24    1    1    2    0    0  0.46947696192E+02  0.41234147706E+01 -0.83286825600E+02  0.12500000000E+03  0.80419002446E+02 0. -1.
</event>
<event>
 4    1  0.1586888E-001  0.1250000E+03  0.7546771E-02  0.1126479E+00
        -11   -1    0    0    0    0  0.00000000000E+00  0.00000000000E+00  0.12500000000E+03  0.12500000000E+03  0.00000000000E+00 0.  1.
         11   -1    0    0    0    0 -0.00000000000E+00 -0.00000000000E+00 -0.12500000000E+03  0.12500000000E+03  0.00000000000E+00 0. -1.
         24    1    1    2    0    0  0.76319221384E+02  0.42320485742E+02  0.39270051941E+02  0.12500000000E+03  0.80419002446E+02 0.  1.
        -24    1    1    2    0    0 -0.76319221384E+02 -0.42320485742E+02 -0.39270051941E+02  0.12500000000E+03  0.80419002446E+02 0. -1.
</event>
<event>
 4    1  0.1586888E-001  0.1250000E+03  0.7546771E-02  0.1126479E+00
        -11   -1    0    0    0    0  0.00000000000E+00  0.00000000000E+00  0.12500000000E+03  0.12500000000E+03  0.00000000000E+00 0.  1.
         11   -1    0    0    0    0 -0.00000000000E+00 -0.00000000000E+00 -0.12500000000E+03  0.12500000000E+03  0.00000000000E+00 0. -1.
         24    1    1    2    0    0 -0.13909513923E+02 -0.71597197684E+02  0.61952810686E+02  0.12500000000E+03  0.80419002446E+02 0.  1.
        -24    1    1    2    0    0  0.13909513923E+02  0.71597197684E+02 -0.61952810686E+02  0.12500000000E+03  0.80419002446E+02 0. -1.
</event>
<event>
 4    1  0.1586888E-001  0.1250000E+03  0.7546771E-02  0.1126479E+00
        -11   -1    0    0    0    0  0.00000000000E+00  0.00000000000E+00  0.12500000000E+03  0.12500000000E+03  0.00000000000E+00 0.  1.
         11   -1    0    0    0    0 -0.00000000000E+00 -0.00000000000E+00 -0.12500000000E+03  0.12500000000E+03  0.00000000000E+00 0. -1.
         24    1    1    2    0    0 -0.61749205035E+02  0.45264201701E+02  0.57410554496E+02  0.12500000000E+03  0.80419002446E+02 0.  1.
        -24    1    1    2    0    0  0.61749205035E+02 -0.45264201701E+02 -0.57410554496E+02  0.12500000000E+03  0.80419002446E+02 0. -1.
</event>
<event>
 4    1  0.1586888E-001  0.1250000E+03  0.7546771E-02  0.1126479E+00
        -11   -1    0    0    0    0  0.00000000000E+00  0.00000000000E+00  0.12500000000E+03  0.12500000000E+03  0.00000000000E+00 0.  1.
         11   -1    0    0    0    0 -0.00000000000E+00 -0.00000000000E+00 -0.12500000000E+03  0.12500000000E+03  0.00000000000E+00 0. -1.
         24    1    1    2    0    0  0.45880650867E+02  0.80491021478E+01  0.83594030147E+02  0.12500000000E+03  0.80419002446E+02 0.  1.
        -24    1    1    2    0    0 -0.45880650867E+02 -0.80491021478E+01 -0.83594030147E+02  0.12500000000E+03  0.80419002446E+02 0. -1.
</event>
<event>
 4    1  0.1586888E-001  0.1250000E+03  0.7546771E-02  0.1126479E+00
        -11   -1    0    0    0    0  0.00000000000E+00  0.00000000000E+00  0.12500000000E+03  0.12500000000E+03  0.00000000000E+00 0.  1.
         11   -1    0    0    0    0 -0.00000000000E+00 -0.00000000000E+00 -0.12500000000E+03  0.12500000000E+03  0.00000000000E+00 0. -1.
         24    1    1    2    0    0  0.71533997957E+02  0.38471273747E+02  0.50602690425E+02  0.12500000000E+03  0.80419002446E+02 0.  1.
        -24    1    1    2    0    0 -0.71533997957E+02 -0.38471273747E+02 -0.50602690425E+02  0.12500000000E+03  0.80419002446E+02 0. -1.
</event>
<event>
 4    1  0.1586888E-001  0.1250000E+03  0.7546771E-02  0.1126479E+00
        -11   -1    0    0    0    0  0.00000000000E+00  0.00000000000E+00  0.12500000000E+03  0.12500000000E+03  0.00000000000E+00 0.  1.
         11   -1    0    0    0    0 -0.00000000000E+00 -0.00000000000E+00 -0.12500000000E+03  0.12500000000E+03  0.00000000000E+00 0. -1.
         24    1    1    2    0    0  0.19959971646E+02  0.20567257822E+02  0.91303732033E+02  0.12500000000E+03  0.80419002446E+02 0.  1.
        -24    1    1    2    0    0 -0.19959971646E+02 -0.20567257822E+02 -0.91303732033E+02  0.12500000000E+03  0.80419002446E+02 0. -1.
</event>
<event>
 4    1  0.1586888E-001  0.1250000E+03  0.7546771E-02  0.1126479E+00
        -11   -1    0    0    0    0  0.00000000000E+00  0.00000000000E+00  0.12500000000E+03  0.12500000000E+03  0.00000000000E+00 0.  1.
         11   -1    0    0    0    0 -0.00000000000E+00 -0.00000000000E+00 -0.12500000000E+03  0.12500000000E+03  0.00000000000E+00 0. -1.
         24    1    1    2    0    0  0.20531256841E+02 -0.66698849445E+02  0.65479118968E+02  0.12500000000E+03  0.80419002446E+02 0.  1.
        -24    1    1    2    0    0 -0.20531256841E+02  0.66698849445E+02 -0.65479118968E+02  0.12500000000E+03  0.80419002446E+02 0. -1.
</event>
<event>
 4    1  0.1586888E-001  0.1250000E+03  0.7546771E-02  0.1126479E+00
        -11   -1    0    0    0    0  0.00000000000E+00  0.00000000000E+00  0.12500000000E+03  0.12500000000E+03  0.00000000000E+00 0.  1.
         11   -1    0    0    0    0 -0.00000000000E+00 -0.00000000000E+00 -0.12500000000E+03  0.12500000000E+03  0.00000000000E+00 0. -1.
         24    1    1    2    0    0  0.38967171382E+02  0.16213603279E+02  0.85886335752E+02  0.12500000000E+03  0.80419002446E+02 0.  1.
        -24    1    1    2    0    0 -0.38967171382E+02 -0.16213603279E+02 -0.85886335752E+02  0.12500000000E+03  0.80419002446E+02 0. -1.
</event>
<event>
 4    1  0.1586888E-001  0.1250000E+03  0.7546771E-02  0.1126479E+00
        -11   -1    0    0    0    0  0.00000000000E+00  0.00000000000E+00  0.12500000000E+03  0.12500000000E+03  0.00000000000E+00 0.  1.
         11   -1    0    0    0    0 -0.00000000000E+00 -0.00000000000E+00 -0.12500000000E+03  0.12500000000E+03  0.00000000000E+00 0. -1.
         24    1    1    2    0    0 -0.26101299928E+02 -0.22058454655E+02  0.89386412647E+02  0.12500000000E+03  0.80419002446E+02 0.  0.
        -24    1    1    2    0    0  0.26101299928E+02  0.22058454655E+02 -0.89386412647E+02  0.12500000000E+03  0.80419002446E+02 0.  1.
</event>
<event>
 4    1  0.1586888E-001  0.1250000E+03  0.7546771E-02  0.1126479E+00
        -11   -1    0    0    0    0  0.00000000000E+00  0.00000000000E+00  0.12500000000E+03  0.12500000000E+03  0.00000000000E+00 0.  1.
         11   -1    0    0    0    0 -0.00000000000E+00 -0.00000000000E+00 -0.12500000000E+03  0.12500000000E+03  0.00000000000E+00 0. -1.
         24    1    1    2    0    0  0.30006215345E+02 -0.68166858024E+01  0.90614258707E+02  0.12500000000E+03  0.80419002446E+02 0.  1.
        -24    1    1    2    0    0 -0.30006215345E+02  0.68166858024E+01 -0.90614258707E+02  0.12500000000E+03  0.80419002446E+02 0. -1.
</event>
<event>
 4    1  0.1586888E-001  0.1250000E+03  0.7546771E-02  0.1126479E+00
        -11   -1    0    0    0    0  0.00000000000E+00  0.00000000000E+00  0.12500000000E+03  0.12500000000E+03  0.00000000000E+00 0.  1.
         11   -1    0    0    0    0 -0.00000000000E+00 -0.00000000000E+00 -0.12500000000E+03  0.12500000000E+03  0.00000000000E+00 0. -1.
         24    1    1    2    0    0  0.17416026389E+02 -0.20847790064E+01  0.94075075163E+02  0.12500000000E+03  0.80419002446E+02 0.  1.
        -24    1    1    2    0    0 -0.17416026389E+02  0.20847790064E+01 -0.94075075163E+02  0.12500000000E+03  0.80419002446E+02 0.  0.
</event>
<event>
 4    1  0.1586888E-001  0.1250000E+03  0.7546771E-02  0.1126479E+00
        -11   -1    0    0    0    0  0.00000000000E+00  0.00000000000E+00  0.12500000000E+03  0.12500000000E+03  0.00000000000E+00 0.  1.
         11   -1    0    0    0    0 -0.00000000000E+00 -0.00000000000E+00 -0.12500000000E+03  0.12500000000E+03  0.00000000000E+00 0. -1.
         24    1    1    2    0    0  0.30866157188E+01 -0.15904402748E+02  0.94314934248E+02  0.12500000000E+03  0.80419002446E+02 0.  1.
        -24    1    1    2    0    0 -0.30866157188E+01  0.15904402748E+02 -0.94314934248E+02  0.12500000000E+03  0.80419002446E+02 0. -1.
</event>
<event>
 4    1  0.1586888E-001  0.1250000E+03  0.7546771E-02  0.1126479E+00
        -11   -1    0    0    0    0  0.00000000000E+00  0.00000000000E+00  0.12500000000E+03  0.12500000000E+03  0.00000000000E+00 0.  1.
         11   -1    0    0    0    0 -0.00000000000E+00 -0.00000000000E+00 -0.12500000000E+03  0.12500000000E+03  0.00000000000E+00 0. -1.
         24    1    1    2    0    0  0.17139752787E+02 -0.24044402232E+02  0.91026807268E+02  0.12500000000E+03  0.80419002446E+02 0.  1.
        -24    1    1    2    0    0 -0.17139752787E+02  0.24044402232E+02 -0.91026807268E+02  0.12500000000E+03  0.80419002446E+02 0. -1.
</event>
<event>
 4    1  0.1586888E-001  0.1250000E+03  0.7546771E-02  0.1126479E+00
        -11   -1    0    0    0    0  0.00000000000E+00  0.00000000000E+00  0.12500000000E+03  0.12500000000E+03  0.00000000000E+00 0.  1.
         11   -1    0    0    0    0 -0.00000000000E+00 -0.00000000000E+00 -0.12500000000E+03  0.12500000000E+03  0.00000000000E+00 0. -1.
         24    1    1    2    0    0  0.59035336200E+02  0.60605069888E+01  0.75072520808E+02  0.12500000000E+03  0.80419002446E+02 0.  1.
        -24    1    1    2    0    0 -0.59035336200E+02 -0.60605069888E+01 -0.75072520808E+02  0.12500000000E+03  0.80419002446E+02 0. -1.
</event>
<event>
 4    1  0.1586888E-001  0.1250000E+03  0.7546771E-02  0.1126479E+00
        -11   -1    0    0    0    0  0.00000000000E+00  0.00000000000E+00  0.12500000000E+03  0.12500000000E+03  0.00000000000E+00 0.  1.
         11   -1    0    0    0    0 -0.00000000000E+00 -0.00000000000E+00 -0.12500000000E+03  0.12500000000E+03  0.00000000000E+00 0. -1.
         24    1    1    2    0    0 -0.86042337869E+02  0.11192285784E+02  0.40363756994E+02  0.12500000000E+03  0.80419002446E+02 0.  1.
        -24    1    1    2    0    0  0.86042337869E+02 -0.11192285784E+02 -0.40363756994E+02  0.12500000000E+03  0.80419002446E+02 0. -1.
</event>
<event>
 4    1  0.1586888E-001  0.1250000E+03  0.7546771E-02  0.1126479E+00
        -11   -1    0    0    0    0  0.00000000000E+00  0.00000000000E+00  0.12500000000E+03  0.12500000000E+03  0.00000000000E+00 0.  1.
         11   -1    0    0    0    0 -0.00000000000E+00 -0.00000000000E+00 -0.12500000000E+03  0.12500000000E+03  0.00000000000E+00 0. -1.
         24    1    1    2    0    0 -0.34878271778E+02 -0.79982729107E+02  0.39294442965E+02  0.12500000000E+03  0.80419002446E+02 0. -1.
        -24    1    1    2    0    0  0.34878271778E+02  0.79982729107E+02 -0.39294442965E+02  0.12500000000E+03  0.80419002446E+02 0.  1.
</event>
<event>
 4    1  0.1586888E-001  0.1250000E+03  0.7546771E-02  0.1126479E+00
        -11   -1    0    0    0    0  0.00000000000E+00  0.00000000000E+00  0.12500000000E+03  0.12500000000E+03  0.00000000000E+00 0.  1.
         11   -1    0    0    0    0 -0.00000000000E+00 -0.00000000000E+00 -0.12500000000E+03  0.12500000000E+03  0.00000000000E+00 0. -1.
         24    1    1    2    0    0 -0.82217241289E+02  0.36604068773E+02 -0.32530776653E+02  0.12500000000E+03  0.80419002446E+02 0.  0.
        -24    1    1    2    0    0  0.82217241289E+02 -0.36604068773E+02  0.32530776653E+02  0.12500000000E+03  0.80419002446E+02 0.  0.
</event>
<event>
 4    1  0.1586888E-001  0.1250000E+03  0.7546771E-02  0.1126479E+00
        -11   -1    0    0    0    0  0.00000000000E+00  0.00000000000E+00  0.12500000000E+03  0.12500000000E+03  0.00000000000E+00 0.  1.
         11   -1    0    0    0    0 -0.00000000000E+00 -0.00000000000E+00 -0.12500000000E+03  0.12500000000E+03  0.00000000000E+00 0. -1.
         24    1    1    2    0    0  0.75852244537E+02 -0.51575674039E+02 -0.27279495812E+02  0.12500000000E+03  0.80419002446E+02 0. -1.
        -24    1    1    2    0    0 -0.75852244537E+02  0.51575674039E+02  0.27279495812E+02  0.12500000000E+03  0.80419002446E+02 0.  1.
</event>
<event>
 4    1  0.1586888E-001  0.1250000E+03  0.7546771E-02  0.1126479E+00
        -11   -1    0    0    0    0  0.00000000000E+00  0.00000000000E+00  0.12500000000E+03  0.12500000000E+03  0.00000000000E+00 0.  1.
         11   -1    0    0    0    0 -0.00000000000E+00 -0.00000000000E+00 -0.12500000000E+03  0.12500000000E+03  0.00000000000E+00 0. -1.
         24    1    1    2    0    0  0.19806205800E+02 -0.58582134469E+02  0.73031717620E+02  0.12500000000E+03  0.80419002446E+02 0.  1.
        -24    1    1    2    0    0 -0.19806205800E+02  0.58582134469E+02 -0.73031717620E+02  0.12500000000E+03  0.80419002446E+02 0. -1.
</event>
<event>
 4    1  0.1586888E-001  0.1250000E+03  0.7546771E-02  0.1126479E+00
        -11   -1    0    0    0    0  0.00000000000E+00  0.00000000000E+00  0.12500000000E+03  0.12500000000E+03  0.00000000000E+00 0.  1.
         11   -1    0    0    0    0 -0.00000000000E+00 -0.00000000000E+00 -0.12500000000E+03  0.12500000000E+03  0.00000000000E+00 0. -1.
         24    1    1    2    0    0 -0.56202021898E+02  0.62401361290E+02 -0.45882315650E+02  0.12500000000E+03  0.80419002446E+02 0.  0.
        -24    1    1    2    0    0  0.56202021898E+02 -0.62401361290E+02  0.45882315650E+02  0.12500000000E+03  0.80419002446E+02 0.  0.
</event>
<event>
 4    1  0.1586888E-001  0.1250000E+03  0.7546771E-02  0.1126479E+00
        -11   -1    0    0    0    0  0.00000000000E+00  0.00000000000E+00  0.12500000000E+03  0.12500000000E+03  0.00000000000E+00 0.  1.
         11   -1    0    0    0    0 -0.00000000000E+00 -0.00000000000E+00 -0.12500000000E+03  0.12500000000E+03  0.00000000000E+00 0. -1.
         24    1    1    2    0    0  0.67879162371E+02  0.38562849400E+01  0.67344876776E+02  0.12500000000E+03  0.80419002446E+02 0.  1.
        -24    1    1    2    0    0 -0.67879162371E+02 -0.38562849400E+01 -0.67344876776E+02  0.12500000000E+03  0.80419002446E+02 0. -1.
</event>
<event>
 4    1  0.1586888E-001  0.1250000E+03  0.7546771E-02  0.1126479E+00
        -11   -1    0    0    0    0  0.00000000000E+00  0.00000000000E+00  0.12500000000E+03  0.12500000000E+03  0.00000000000E+00 0.  1.
         11   -1    0    0    0    0 -0.00000000000E+00 -0.00000000000E+00 -0.12500000000E+03  0.12500000000E+03  0.00000000000E+00 0. -1.
         24    1    1    2    0    0  0.10918882698E+02  0.13526230457E+02  0.94104214230E+02  0.12500000000E+03  0.80419002446E+02 0.  1.
        -24    1    1    2    0    0 -0.10918882698E+02 -0.13526230457E+02 -0.94104214230E+02  0.12500000000E+03  0.80419002446E+02 0. -1.
</event>
<event>
 4    1  0.1586888E-001  0.1250000E+03  0.7546771E-02  0.1126479E+00
        -11   -1    0    0    0    0  0.00000000000E+00  0.00000000000E+00  0.12500000000E+03  0.12500000000E+03  0.00000000000E+00 0.  1.
         11   -1    0    0    0    0 -0.00000000000E+00 -0.00000000000E+00 -0.12500000000E+03  0.12500000000E+03  0.00000000000E+00 0. -1.
         24    1    1    2    0    0 -0.29283658404E+02  0.68532910754E+02  0.60029089113E+02  0.12500000000E+03  0.80419002446E+02 0.  1.
        -24    1    1    2    0    0  0.29283658404E+02 -0.68532910754E+02 -0.60029089113E+02  0.12500000000E+03  0.80419002446E+02 0. -1.
</event>
<event>
 4    1  0.1586888E-001  0.1250000E+03  0.7546771E-02  0.1126479E+00
        -11   -1    0    0    0    0  0.00000000000E+00  0.00000000000E+00  0.12500000000E+03  0.12500000000E+03  0.00000000000E+00 0.  1.
         11   -1    0    0    0    0 -0.00000000000E+00 -0.00000000000E+00 -0.12500000000E+03  0.12500000000E+03  0.00000000000E+00 0. -1.
         24    1    1    2    0    0  0.67750804955E+02  0.54258060575E+01  0.67365963974E+02  0.12500000000E+03  0.80419002446E+02 0.  1.
        -24    1    1    2    0    0 -0.67750804955E+02 -0.54258060575E+01 -0.67365963974E+02  0.12500000000E+03  0.80419002446E+02 0. -1.
</event>
<event>
 4    1  0.1586888E-001  0.1250000E+03  0.7546771E-02  0.1126479E+00
        -11   -1    0    0    0    0  0.00000000000E+00  0.00000000000E+00  0.12500000000E+03  0.12500000000E+03  0.00000000000E+00 0.  1.
         11   -1    0    0    0    0 -0.00000000000E+00 -0.00000000000E+00 -0.12500000000E+03  0.12500000000E+03  0.00000000000E+00 0. -1.
         24    1    1    2    0    0  0.47177598487E+02 -0.10558200094E+02  0.82586818908E+02  0.12500000000E+03  0.80419002446E+02 0.  1.
        -24    1    1    2    0    0 -0.47177598487E+02  0.10558200094E+02 -0.82586818908E+02  0.12500000000E+03  0.80419002446E+02 0. -1.
</event>
<event>
 4    1  0.1586888E-001  0.1250000E+03  0.7546771E-02  0.1126479E+00
        -11   -1    0    0    0    0  0.00000000000E+00  0.00000000000E+00  0.12500000000E+03  0.12500000000E+03  0.00000000000E+00 0.  1.
         11   -1    0    0    0    0 -0.00000000000E+00 -0.00000000000E+00 -0.12500000000E+03  0.12500000000E+03  0.00000000000E+00 0. -1.
         24    1    1    2    0    0  0.82189428001E+02  0.49015060636E+02  0.45365338261E+00  0.12500000000E+03  0.80419002446E+02 0.  1.
        -24    1    1    2    0    0 -0.82189428001E+02 -0.49015060636E+02 -0.45365338261E+00  0.12500000000E+03  0.80419002446E+02 0. -1.
</event>
<event>
 4    1  0.1586888E-001  0.1250000E+03  0.7546771E-02  0.1126479E+00
        -11   -1    0    0    0    0  0.00000000000E+00  0.00000000000E+00  0.12500000000E+03  0.12500000000E+03  0.00000000000E+00 0.  1.
         11   -1    0    0    0    0 -0.00000000000E+00 -0.00000000000E+00 -0.12500000000E+03  0.12500000000E+03  0.00000000000E+00 0. -1.
         24    1    1    2    0    0 -0.53811853697E+01 -0.17656718179E+02  0.93899239575E+02  0.12500000000E+03  0.80419002446E+02 0.  1.
        -24    1    1    2    0    0  0.53811853697E+01  0.17656718179E+02 -0.93899239575E+02  0.12500000000E+03  0.80419002446E+02 0. -1.
</event>
<event>
 4    1  0.1586888E-001  0.1250000E+03  0.7546771E-02  0.1126479E+00
        -11   -1    0    0    0    0  0.00000000000E+00  0.00000000000E+00  0.12500000000E+03  0.12500000000E+03  0.00000000000E+00 0.  1.
         11   -1    0    0    0    0 -0.00000000000E+00 -0.00000000000E+00 -0.12500000000E+03  0.12500000000E+03  0.00000000000E+00 0. -1.
         24    1    1    2    0    0 -0.30951765813E+02  0.20390337662E+02  0.88227016093E+02  0.12500000000E+03  0.80419002446E+02 0.  1.
        -24    1    1    2    0    0  0.30951765813E+02 -0.20390337662E+02 -0.88227016093E+02  0.12500000000E+03  0.80419002446E+02 0. -1.
</event>
<event>
 4    1  0.1586888E-001  0.1250000E+03  0.7546771E-02  0.1126479E+00
        -11   -1    0    0    0    0  0.00000000000E+00  0.00000000000E+00  0.12500000000E+03  0.12500000000E+03  0.00000000000E+00 0.  1.
         11   -1    0    0    0    0 -0.00000000000E+00 -0.00000000000E+00 -0.12500000000E+03  0.12500000000E+03  0.00000000000E+00 0. -1.
         24    1    1    2    0    0  0.31351090333E+02  0.48064289770E+02  0.76581441809E+02  0.12500000000E+03  0.80419002446E+02 0.  1.
        -24    1    1    2    0    0 -0.31351090333E+02 -0.48064289770E+02 -0.76581441809E+02  0.12500000000E+03  0.80419002446E+02 0. -1.
</event>
<event>
 4    1  0.1586888E-001  0.1250000E+03  0.7546771E-02  0.1126479E+00
        -11   -1    0    0    0    0  0.00000000000E+00  0.00000000000E+00  0.12500000000E+03  0.12500000000E+03  0.00000000000E+00 0.  1.
         11   -1    0    0    0    0 -0.00000000000E+00 -0.00000000000E+00 -0.12500000000E+03  0.12500000000E+03  0.00000000000E+00 0. -1.
         24    1    1    2    0    0  0.37107244187E+02  0.30426416914E+02  0.82795347866E+02  0.12500000000E+03  0.80419002446E+02 0.  1.
        -24    1    1    2    0    0 -0.37107244187E+02 -0.30426416914E+02 -0.82795347866E+02  0.12500000000E+03  0.80419002446E+02 0.  1.
</event>
<event>
 4    1  0.1586888E-001  0.1250000E+03  0.7546771E-02  0.1126479E+00
        -11   -1    0    0    0    0  0.00000000000E+00  0.00000000000E+00  0.12500000000E+03  0.12500000000E+03  0.00000000000E+00 0.  1.
         11   -1    0    0    0    0 -0.00000000000E+00 -0.00000000000E+00 -0.12500000000E+03  0.12500000000E+03  0.00000000000E+00 0. -1.
         24    1    1    2    0    0 -0.63956701492E+02 -0.45897246571E+02  0.54412931708E+02  0.12500000000E+03  0.80419002446E+02 0.  1.
        -24    1    1    2    0    0  0.63956701492E+02  0.45897246571E+02 -0.54412931708E+02  0.12500000000E+03  0.80419002446E+02 0.  0.
</event>
<event>
 4    1  0.1586888E-001  0.1250000E+03  0.7546771E-02  0.1126479E+00
        -11   -1    0    0    0    0  0.00000000000E+00  0.00000000000E+00  0.12500000000E+03  0.12500000000E+03  0.00000000000E+00 0.  1.
         11   -1    0    0    0    0 -0.00000000000E+00 -0.00000000000E+00 -0.12500000000E+03  0.12500000000E+03  0.00000000000E+00 0. -1.
         24    1    1    2    0    0 -0.27520678140E+00  0.42004986191E+02  0.85984239498E+02  0.12500000000E+03  0.80419002446E+02 0. -1.
        -24    1    1    2    0    0  0.27520678140E+00 -0.42004986191E+02 -0.85984239498E+02  0.12500000000E+03  0.80419002446E+02 0. -1.
</event>
<event>
 4    1  0.1586888E-001  0.1250000E+03  0.7546771E-02  0.1126479E+00
        -11   -1    0    0    0    0  0.00000000000E+00  0.00000000000E+00  0.12500000000E+03  0.12500000000E+03  0.00000000000E+00 0.  1.
         11   -1    0    0    0    0 -0.00000000000E+00 -0.00000000000E+00 -0.12500000000E+03  0.12500000000E+03  0.00000000000E+00 0. -1.
         24    1    1    2    0    0  0.74625563484E+02 -0.59807966734E+02  0.34375042479E+01  0.12500000000E+03  0.80419002446E+02 0. -1.
        -24    1    1    2    0    0 -0.74625563484E+02  0.59807966734E+02 -0.34375042479E+01  0.12500000000E+03  0.80419002446E+02 0.  1.
</event>
<event>
 4    1  0.1586888E-001  0.1250000E+03  0.7546771E-02  0.1126479E+00
        -11   -1    0    0    0    0  0.00000000000E+00  0.00000000000E+00  0.12500000000E+03  0.12500000000E+03  0.00000000000E+00 0.  1.
         11   -1    0    0    0    0 -0.00000000000E+00 -0.00000000000E+00 -0.12500000000E+03  0.12500000000E+03  0.00000000000E+00 0. -1.
         24    1    1    2    0    0 -0.51726957206E+02  0.10066864397E+02  0.79879685685E+02  0.12500000000E+03  0.80419002446E+02 0.  1.
        -24    1    1    2    0    0  0.51726957206E+02 -0.10066864397E+02 -0.79879685685E+02  0.12500000000E+03  0.80419002446E+02 0. -1.
</event>
<event>
 4    1  0.1586888E-001  0.1250000E+03  0.7546771E-02  0.1126479E+00
        -11   -1    0    0    0    0  0.00000000000E+00  0.00000000000E+00  0.12500000000E+03  0.12500000000E+03  0.00000000000E+00 0.  1.
         11   -1    0    0    0    0 -0.00000000000E+00 -0.00000000000E+00 -0.12500000000E+03  0.12500000000E+03  0.00000000000E+00 0. -1.
         24    1    1    2    0    0  0.70661195149E+02 -0.26444020594E+02  0.58868440786E+02  0.12500000000E+03  0.80419002446E+02 0.  1.
        -24    1    1    2    0    0 -0.70661195149E+02  0.26444020594E+02 -0.58868440786E+02  0.12500000000E+03  0.80419002446E+02 0. -1.
</event>
<event>
 4    1  0.1586888E-001  0.1250000E+03  0.7546771E-02  0.1126479E+00
        -11   -1    0    0    0    0  0.00000000000E+00  0.00000000000E+00  0.12500000000E+03  0.12500000000E+03  0.00000000000E+00 0.  1.
         11   -1    0    0    0    0 -0.00000000000E+00 -0.00000000000E+00 -0.12500000000E+03  0.12500000000E+03  0.00000000000E+00 0. -1.
         24    1    1    2    0    0 -0.58029032674E+01 -0.73862576680E+02  0.60567566613E+02  0.12500000000E+03  0.80419002446E+02 0.  1.
        -24    1    1    2    0    0  0.58029032674E+01  0.73862576680E+02 -0.60567566613E+02  0.12500000000E+03  0.80419002446E+02 0. -1.
</event>
<event>
 4    1  0.1586888E-001  0.1250000E+03  0.7546771E-02  0.1126479E+00
        -11   -1    0    0    0    0  0.00000000000E+00  0.00000000000E+00  0.12500000000E+03  0.12500000000E+03  0.00000000000E+00 0.  1.
         11   -1    0    0    0    0 -0.00000000000E+00 -0.00000000000E+00 -0.12500000000E+03  0.12500000000E+03  0.00000000000E+00 0. -1.
         24    1    1    2    0    0  0.71933377216E+01 -0.41182195733E+02  0.86081744247E+02  0.12500000000E+03  0.80419002446E+02 0.  1.
        -24    1    1    2    0    0 -0.71933377216E+01  0.41182195733E+02 -0.86081744247E+02  0.12500000000E+03  0.80419002446E+02 0. -1.
</event>
<event>
 4    1  0.1586888E-001  0.1250000E+03  0.7546771E-02  0.1126479E+00
        -11   -1    0    0    0    0  0.00000000000E+00  0.00000000000E+00  0.12500000000E+03  0.12500000000E+03  0.00000000000E+00 0.  1.
         11   -1    0    0    0    0 -0.00000000000E+00 -0.00000000000E+00 -0.12500000000E+03  0.12500000000E+03  0.00000000000E+00 0. -1.
         24    1    1    2    0    0  0.67998855829E+02  0.34412966391E+02  0.57876483962E+02  0.12500000000E+03  0.80419002446E+02 0.  1.
        -24    1    1    2    0    0 -0.67998855829E+02 -0.34412966391E+02 -0.57876483962E+02  0.12500000000E+03  0.80419002446E+02 0. -1.
</event>
<event>
 4    1  0.1586888E-001  0.1250000E+03  0.7546771E-02  0.1126479E+00
        -11   -1    0    0    0    0  0.00000000000E+00  0.00000000000E+00  0.12500000000E+03  0.12500000000E+03  0.00000000000E+00 0.  1.
         11   -1    0    0    0    0 -0.00000000000E+00 -0.00000000000E+00 -0.12500000000E+03  0.12500000000E+03  0.00000000000E+00 0. -1.
         24    1    1    2    0    0 -0.27499952258E+02 -0.14030086709E+02  0.90579762300E+02  0.12500000000E+03  0.80419002446E+02 0.  1.
        -24    1    1    2    0    0  0.27499952258E+02  0.14030086709E+02 -0.90579762300E+02  0.12500000000E+03  0.80419002446E+02 0. -1.
</event>
<event>
 4    1  0.1586888E-001  0.1250000E+03  0.7546771E-02  0.1126479E+00
        -11   -1    0    0    0    0  0.00000000000E+00  0.00000000000E+00  0.12500000000E+03  0.12500000000E+03  0.00000000000E+00 0.  1.
         11   -1    0    0    0    0 -0.00000000000E+00 -0.00000000000E+00 -0.12500000000E+03  0.12500000000E+03  0.00000000000E+00 0. -1.
         24    1    1    2    0    0 -0.47928109497E+02  0.12790406116E+02  0.81835724944E+02  0.12500000000E+03  0.80419002446E+02 0.  1.
        -24    1    1    2    0    0  0.47928109497E+02 -0.12790406116E+02 -0.81835724944E+02  0.12500000000E+03  0.80419002446E+02 0. -1.
</event>
<event>
 4    1  0.1586888E-001  0.1250000E+03  0.7546771E-02  0.1126479E+00
        -11   -1    0    0    0    0  0.00000000000E+00  0.00000000000E+00  0.12500000000E+03  0.12500000000E+03  0.00000000000E+00 0.  1.
         11   -1    0    0    0    0 -0.00000000000E+00 -0.00000000000E+00 -0.12500000000E+03  0.12500000000E+03  0.00000000000E+00 0. -1.
         24    1    1    2    0    0 -0.47818806083E+02  0.29734569339E+02  0.77375714644E+02  0.12500000000E+03  0.80419002446E+02 0.  1.
        -24    1    1    2    0    0  0.47818806083E+02 -0.29734569339E+02 -0.77375714644E+02  0.12500000000E+03  0.80419002446E+02 0. -1.
</event>
<event>
 4    1  0.1586888E-001  0.1250000E+03  0.7546771E-02  0.1126479E+00
        -11   -1    0    0    0    0  0.00000000000E+00  0.00000000000E+00  0.12500000000E+03  0.12500000000E+03  0.00000000000E+00 0.  1.
         11   -1    0    0    0    0 -0.00000000000E+00 -0.00000000000E+00 -0.12500000000E+03  0.12500000000E+03  0.00000000000E+00 0. -1.
         24    1    1    2    0    0 -0.42444482074E+02 -0.41719818634E+02  0.74938019191E+02  0.12500000000E+03  0.80419002446E+02 0.  1.
        -24    1    1    2    0    0  0.42444482074E+02  0.41719818634E+02 -0.74938019191E+02  0.12500000000E+03  0.80419002446E+02 0. -1.
</event>
<event>
 4    1  0.1586888E-001  0.1250000E+03  0.7546771E-02  0.1126479E+00
        -11   -1    0    0    0    0  0.00000000000E+00  0.00000000000E+00  0.12500000000E+03  0.12500000000E+03  0.00000000000E+00 0.  1.
         11   -1    0    0    0    0 -0.00000000000E+00 -0.00000000000E+00 -0.12500000000E+03  0.12500000000E+03  0.00000000000E+00 0. -1.
         24    1    1    2    0    0  0.78949841523E+02 -0.41623217395E+02  0.34528457001E+02  0.12500000000E+03  0.80419002446E+02 0. -1.
        -24    1    1    2    0    0 -0.78949841523E+02  0.41623217395E+02 -0.34528457001E+02  0.12500000000E+03  0.80419002446E+02 0.  0.
</event>
<event>
 4    1  0.1586888E-001  0.1250000E+03  0.7546771E-02  0.1126479E+00
        -11   -1    0    0    0    0  0.00000000000E+00  0.00000000000E+00  0.12500000000E+03  0.12500000000E+03  0.00000000000E+00 0.  1.
         11   -1    0    0    0    0 -0.00000000000E+00 -0.00000000000E+00 -0.12500000000E+03  0.12500000000E+03  0.00000000000E+00 0. -1.
         24    1    1    2    0    0 -0.81029852401E+02 -0.13744087230E+02  0.49020884648E+02  0.12500000000E+03  0.80419002446E+02 0.  1.
        -24    1    1    2    0    0  0.81029852401E+02  0.13744087230E+02 -0.49020884648E+02  0.12500000000E+03  0.80419002446E+02 0. -1.
</event>
<event>
 4    1  0.1586888E-001  0.1250000E+03  0.7546771E-02  0.1126479E+00
        -11   -1    0    0    0    0  0.00000000000E+00  0.00000000000E+00  0.12500000000E+03  0.12500000000E+03  0.00000000000E+00 0.  1.
         11   -1    0    0    0    0 -0.00000000000E+00 -0.00000000000E+00 -0.12500000000E+03  0.12500000000E+03  0.00000000000E+00 0. -1.
         24    1    1    2    0    0 -0.47339948304E+02 -0.57919113224E+01  0.82964854628E+02  0.12500000000E+03  0.80419002446E+02 0.  1.
        -24    1    1    2    0    0  0.47339948304E+02  0.57919113224E+01 -0.82964854628E+02  0.12500000000E+03  0.80419002446E+02 0. -1.
</event>
<event>
 4    1  0.1586888E-001  0.1250000E+03  0.7546771E-02  0.1126479E+00
        -11   -1    0    0    0    0  0.00000000000E+00  0.00000000000E+00  0.12500000000E+03  0.12500000000E+03  0.00000000000E+00 0.  1.
         11   -1    0    0    0    0 -0.00000000000E+00 -0.00000000000E+00 -0.12500000000E+03  0.12500000000E+03  0.00000000000E+00 0. -1.
         24    1    1    2    0    0  0.16787566986E+02 -0.94092610553E+02  0.47478710568E+01  0.12500000000E+03  0.80419002446E+02 0. -1.
        -24    1    1    2    0    0 -0.16787566986E+02  0.94092610553E+02 -0.47478710568E+01  0.12500000000E+03  0.80419002446E+02 0.  1.
</event>
<event>
 4    1  0.1586888E-001  0.1250000E+03  0.7546771E-02  0.1126479E+00
        -11   -1    0    0    0    0  0.00000000000E+00  0.00000000000E+00  0.12500000000E+03  0.12500000000E+03  0.00000000000E+00 0.  1.
         11   -1    0    0    0    0 -0.00000000000E+00 -0.00000000000E+00 -0.12500000000E+03  0.12500000000E+03  0.00000000000E+00 0. -1.
         24    1    1    2    0    0 -0.58735367761E+02  0.55022024271E+02  0.51773714033E+02  0.12500000000E+03  0.80419002446E+02 0.  1.
        -24    1    1    2    0    0  0.58735367761E+02 -0.55022024271E+02 -0.51773714033E+02  0.12500000000E+03  0.80419002446E+02 0. -1.
</event>
<event>
 4    1  0.1586888E-001  0.1250000E+03  0.7546771E-02  0.1126479E+00
        -11   -1    0    0    0    0  0.00000000000E+00  0.00000000000E+00  0.12500000000E+03  0.12500000000E+03  0.00000000000E+00 0.  1.
         11   -1    0    0    0    0 -0.00000000000E+00 -0.00000000000E+00 -0.12500000000E+03  0.12500000000E+03  0.00000000000E+00 0. -1.
         24    1    1    2    0    0  0.50044842158E+02 -0.18854329874E+02  0.79358755434E+02  0.12500000000E+03  0.80419002446E+02 0.  1.
        -24    1    1    2    0    0 -0.50044842158E+02  0.18854329874E+02 -0.79358755434E+02  0.12500000000E+03  0.80419002446E+02 0. -1.
</event>
<event>
 4    1  0.1586888E-001  0.1250000E+03  0.7546771E-02  0.1126479E+00
        -11   -1    0    0    0    0  0.00000000000E+00  0.00000000000E+00  0.12500000000E+03  0.12500000000E+03  0.00000000000E+00 0.  1.
         11   -1    0    0    0    0 -0.00000000000E+00 -0.00000000000E+00 -0.12500000000E+03  0.12500000000E+03  0.00000000000E+00 0. -1.
         24    1    1    2    0    0 -0.91644896445E+01  0.71883936642E+02  0.62501966594E+02  0.12500000000E+03  0.80419002446E+02 0.  1.
        -24    1    1    2    0    0  0.91644896445E+01 -0.71883936642E+02 -0.62501966594E+02  0.12500000000E+03  0.80419002446E+02 0. -1.
</event>
<event>
 4    1  0.1586888E-001  0.1250000E+03  0.7546771E-02  0.1126479E+00
        -11   -1    0    0    0    0  0.00000000000E+00  0.00000000000E+00  0.12500000000E+03  0.12500000000E+03  0.00000000000E+00 0.  1.
         11   -1    0    0    0    0 -0.00000000000E+00 -0.00000000000E+00 -0.12500000000E+03  0.12500000000E+03  0.00000000000E+00 0. -1.
         24    1    1    2    0    0 -0.76829464606E+02 -0.80525692598E-01  0.57052703087E+02  0.12500000000E+03  0.80419002446E+02 0.  1.
        -24    1    1    2    0    0  0.76829464606E+02  0.80525692598E-01 -0.57052703087E+02  0.12500000000E+03  0.80419002446E+02 0. -1.
</event>
<event>
 4    1  0.1586888E-001  0.1250000E+03  0.7546771E-02  0.1126479E+00
        -11   -1    0    0    0    0  0.00000000000E+00  0.00000000000E+00  0.12500000000E+03  0.12500000000E+03  0.00000000000E+00 0.  1.
         11   -1    0    0    0    0 -0.00000000000E+00 -0.00000000000E+00 -0.12500000000E+03  0.12500000000E+03  0.00000000000E+00 0. -1.
         24    1    1    2    0    0 -0.23017352204E+02 -0.17801135407E+02  0.91165262690E+02  0.12500000000E+03  0.80419002446E+02 0.  1.
        -24    1    1    2    0    0  0.23017352204E+02  0.17801135407E+02 -0.91165262690E+02  0.12500000000E+03  0.80419002446E+02 0. -1.
</event>
<event>
 4    1  0.1586888E-001  0.1250000E+03  0.7546771E-02  0.1126479E+00
        -11   -1    0    0    0    0  0.00000000000E+00  0.00000000000E+00  0.12500000000E+03  0.12500000000E+03  0.00000000000E+00 0.  1.
         11   -1    0    0    0    0 -0.00000000000E+00 -0.00000000000E+00 -0.12500000000E+03  0.12500000000E+03  0.00000000000E+00 0. -1.
         24    1    1    2    0    0 -0.17194141181E+02  0.22822683172E+02  0.91330557249E+02  0.12500000000E+03  0.80419002446E+02 0.  1.
        -24    1    1    2    0    0  0.17194141181E+02 -0.22822683172E+02 -0.91330557249E+02  0.12500000000E+03  0.80419002446E+02 0. -1.
</event>
<event>
 4    1  0.1586888E-001  0.1250000E+03  0.7546771E-02  0.1126479E+00
        -11   -1    0    0    0    0  0.00000000000E+00  0.00000000000E+00  0.12500000000E+03  0.12500000000E+03  0.00000000000E+00 0.  1.
         11   -1    0    0    0    0 -0.00000000000E+00 -0.00000000000E+00 -0.12500000000E+03  0.12500000000E+03  0.00000000000E+00 0. -1.
         24    1    1    2    0    0 -0.51924276566E+02 -0.24532180095E+02  0.76549498291E+02  0.12500000000E+03  0.80419002446E+02 0.  1.
        -24    1    1    2    0    0  0.51924276566E+02  0.24532180095E+02 -0.76549498291E+02  0.12500000000E+03  0.80419002446E+02 0. -1.
</event>
<event>
 4    1  0.1586888E-001  0.1250000E+03  0.7546771E-02  0.1126479E+00
        -11   -1    0    0    0    0  0.00000000000E+00  0.00000000000E+00  0.12500000000E+03  0.12500000000E+03  0.00000000000E+00 0.  1.
         11   -1    0    0    0    0 -0.00000000000E+00 -0.00000000000E+00 -0.12500000000E+03  0.12500000000E+03  0.00000000000E+00 0. -1.
         24    1    1    2    0    0 -0.45269328333E+02 -0.81804376058E+02 -0.20408724011E+02  0.12500000000E+03  0.80419002446E+02 0. -1.
        -24    1    1    2    0    0  0.45269328333E+02  0.81804376058E+02  0.20408724011E+02  0.12500000000E+03  0.80419002446E+02 0.  1.
</event>
<event>
 4    1  0.1586888E-001  0.1250000E+03  0.7546771E-02  0.1126479E+00
        -11   -1    0    0    0    0  0.00000000000E+00  0.00000000000E+00  0.12500000000E+03  0.12500000000E+03  0.00000000000E+00 0.  1.
         11   -1    0    0    0    0 -0.00000000000E+00 -0.00000000000E+00 -0.12500000000E+03  0.12500000000E+03  0.00000000000E+00 0. -1.
         24    1    1    2    0    0  0.33375611191E+02  0.28134381030E+02  0.85160490999E+02  0.12500000000E+03  0.80419002446E+02 0.  1.
        -24    1    1    2    0    0 -0.33375611191E+02 -0.28134381030E+02 -0.85160490999E+02  0.12500000000E+03  0.80419002446E+02 0. -1.
</event>
<event>
 4    1  0.1586888E-001  0.1250000E+03  0.7546771E-02  0.1126479E+00
        -11   -1    0    0    0    0  0.00000000000E+00  0.00000000000E+00  0.12500000000E+03  0.12500000000E+03  0.00000000000E+00 0.  1.
         11   -1    0    0    0    0 -0.00000000000E+00 -0.00000000000E+00 -0.12500000000E+03  0.12500000000E+03  0.00000000000E+00 0. -1.
         24    1    1    2    0    0  0.69310665880E+02  0.56754854935E+02 -0.33655639678E+02  0.12500000000E+03  0.80419002446E+02 0.  1.
        -24    1    1    2    0    0 -0.69310665880E+02 -0.56754854935E+02  0.33655639678E+02  0.12500000000E+03  0.80419002446E+02 0. -1.
</event>
<event>
 4    1  0.1586888E-001  0.1250000E+03  0.7546771E-02  0.1126479E+00
        -11   -1    0    0    0    0  0.00000000000E+00  0.00000000000E+00  0.12500000000E+03  0.12500000000E+03  0.00000000000E+00 0.  1.
         11   -1    0    0    0    0 -0.00000000000E+00 -0.00000000000E+00 -0.12500000000E+03  0.12500000000E+03  0.00000000000E+00 0. -1.
         24    1    1    2    0    0  0.22127946097E+02  0.39642849558E+02  0.84241216314E+02  0.12500000000E+03  0.80419002446E+02 0.  1.
        -24    1    1    2    0    0 -0.22127946097E+02 -0.39642849558E+02 -0.84241216314E+02  0.12500000000E+03  0.80419002446E+02 0. -1.
</event>
<event>
 4    1  0.1586888E-001  0.1250000E+03  0.7546771E-02  0.1126479E+00
        -11   -1    0    0    0    0  0.00000000000E+00  0.00000000000E+00  0.12500000000E+03  0.12500000000E+03  0.00000000000E+00 0.  1.
         11   -1    0    0    0    0 -0.00000000000E+00 -0.00000000000E+00 -0.12500000000E+03  0.12500000000E+03  0.00000000000E+00 0. -1.
         24    1    1    2    0    0 -0.17140695443E+02 -0.37328774458E+02  0.86432304162E+02  0.12500000000E+03  0.80419002446E+02 0.  1.
        -24    1    1    2    0    0  0.17140695443E+02  0.37328774458E+02 -0.86432304162E+02  0.12500000000E+03  0.80419002446E+02 0. -1.
</event>
<event>
 4    1  0.1586888E-001  0.1250000E+03  0.7546771E-02  0.1126479E+00
        -11   -1    0    0    0    0  0.00000000000E+00  0.00000000000E+00  0.12500000000E+03  0.12500000000E+03  0.00000000000E+00 0.  1.
         11   -1    0    0    0    0 -0.00000000000E+00 -0.00000000000E+00 -0.12500000000E+03  0.12500000000E+03  0.00000000000E+00 0. -1.
         24    1    1    2    0    0 -0.54430647817E+02 -0.16155077751E+02  0.77033123309E+02  0.12500000000E+03  0.80419002446E+02 0.  1.
        -24    1    1    2    0    0  0.54430647817E+02  0.16155077751E+02 -0.77033123309E+02  0.12500000000E+03  0.80419002446E+02 0. -1.
</event>
<event>
 4    1  0.1586888E-001  0.1250000E+03  0.7546771E-02  0.1126479E+00
        -11   -1    0    0    0    0  0.00000000000E+00  0.00000000000E+00  0.12500000000E+03  0.12500000000E+03  0.00000000000E+00 0.  1.
         11   -1    0    0    0    0 -0.00000000000E+00 -0.00000000000E+00 -0.12500000000E+03  0.12500000000E+03  0.00000000000E+00 0. -1.
         24    1    1    2    0    0 -0.26620907779E+02 -0.66221459836E+01  0.91680196865E+02  0.12500000000E+03  0.80419002446E+02 0.  0.
        -24    1    1    2    0    0  0.26620907779E+02  0.66221459836E+01 -0.91680196865E+02  0.12500000000E+03  0.80419002446E+02 0.  1.
</event>
<event>
 4    1  0.1586888E-001  0.1250000E+03  0.7546771E-02  0.1126479E+00
        -11   -1    0    0    0    0  0.00000000000E+00  0.00000000000E+00  0.12500000000E+03  0.12500000000E+03  0.00000000000E+00 0.  1.
         11   -1    0    0    0    0 -0.00000000000E+00 -0.00000000000E+00 -0.12500000000E+03  0.12500000000E+03  0.00000000000E+00 0. -1.
         24    1    1    2    0    0 -0.38781686968E+02 -0.84470914407E+02 -0.22769045232E+02  0.12500000000E+03  0.80419002446E+02 0. -1.
        -24    1    1    2    0    0  0.38781686968E+02  0.84470914407E+02  0.22769045232E+02  0.12500000000E+03  0.80419002446E+02 0. -1.
</event>
<event>
 4    1  0.1586888E-001  0.1250000E+03  0.7546771E-02  0.1126479E+00
        -11   -1    0    0    0    0  0.00000000000E+00  0.00000000000E+00  0.12500000000E+03  0.12500000000E+03  0.00000000000E+00 0.  1.
         11   -1    0    0    0    0 -0.00000000000E+00 -0.00000000000E+00 -0.12500000000E+03  0.12500000000E+03  0.00000000000E+00 0. -1.
         24    1    1    2    0    0 -0.14203314075E+02  0.32293620183E+02  0.88956011660E+02  0.12500000000E+03  0.80419002446E+02 0.  1.
        -24    1    1    2    0    0  0.14203314075E+02 -0.32293620183E+02 -0.88956011660E+02  0.12500000000E+03  0.80419002446E+02 0.  0.
</event>
<event>
 4    1  0.1586888E-001  0.1250000E+03  0.7546771E-02  0.1126479E+00
        -11   -1    0    0    0    0  0.00000000000E+00  0.00000000000E+00  0.12500000000E+03  0.12500000000E+03  0.00000000000E+00 0.  1.
         11   -1    0    0    0    0 -0.00000000000E+00 -0.00000000000E+00 -0.12500000000E+03  0.12500000000E+03  0.00000000000E+00 0. -1.
         24    1    1    2    0    0  0.76660427757E+01  0.60802245500E+02  0.73498998469E+02  0.12500000000E+03  0.80419002446E+02 0.  1.
        -24    1    1    2    0    0 -0.76660427757E+01 -0.60802245500E+02 -0.73498998469E+02  0.12500000000E+03  0.80419002446E+02 0. -1.
</event>
<event>
 4    1  0.1586888E-001  0.1250000E+03  0.7546771E-02  0.1126479E+00
        -11   -1    0    0    0    0  0.00000000000E+00  0.00000000000E+00  0.12500000000E+03  0.12500000000E+03  0.00000000000E+00 0.  1.
         11   -1    0    0    0    0 -0.00000000000E+00 -0.00000000000E+00 -0.12500000000E+03  0.12500000000E+03  0.00000000000E+00 0. -1.
         24    1    1    2    0    0 -0.11465210592E+02  0.22956010722E+02  0.92191944135E+02  0.12500000000E+03  0.80419002446E+02 0.  0.
        -24    1    1    2    0    0  0.11465210592E+02 -0.22956010722E+02 -0.92191944135E+02  0.12500000000E+03  0.80419002446E+02 0.  0.
</event>
<event>
 4    1  0.1586888E-001  0.1250000E+03  0.7546771E-02  0.1126479E+00
        -11   -1    0    0    0    0  0.00000000000E+00  0.00000000000E+00  0.12500000000E+03  0.12500000000E+03  0.00000000000E+00 0.  1.
         11   -1    0    0    0    0 -0.00000000000E+00 -0.00000000000E+00 -0.12500000000E+03  0.12500000000E+03  0.00000000000E+00 0. -1.
         24    1    1    2    0    0  0.34033848616E+02 -0.25102141384E+02  0.85844998060E+02  0.12500000000E+03  0.80419002446E+02 0.  0.
        -24    1    1    2    0    0 -0.34033848616E+02  0.25102141384E+02 -0.85844998060E+02  0.12500000000E+03  0.80419002446E+02 0.  0.
</event>
<event>
 4    1  0.1586888E-001  0.1250000E+03  0.7546771E-02  0.1126479E+00
        -11   -1    0    0    0    0  0.00000000000E+00  0.00000000000E+00  0.12500000000E+03  0.12500000000E+03  0.00000000000E+00 0.  1.
         11   -1    0    0    0    0 -0.00000000000E+00 -0.00000000000E+00 -0.12500000000E+03  0.12500000000E+03  0.00000000000E+00 0. -1.
         24    1    1    2    0    0 -0.46089692427E+02 -0.97525267586E+01  0.83297133921E+02  0.12500000000E+03  0.80419002446E+02 0.  1.
        -24    1    1    2    0    0  0.46089692427E+02  0.97525267586E+01 -0.83297133921E+02  0.12500000000E+03  0.80419002446E+02 0. -1.
</event>
<event>
 4    1  0.1586888E-001  0.1250000E+03  0.7546771E-02  0.1126479E+00
        -11   -1    0    0    0    0  0.00000000000E+00  0.00000000000E+00  0.12500000000E+03  0.12500000000E+03  0.00000000000E+00 0.  1.
         11   -1    0    0    0    0 -0.00000000000E+00 -0.00000000000E+00 -0.12500000000E+03  0.12500000000E+03  0.00000000000E+00 0. -1.
         24    1    1    2    0    0 -0.21641018561E+01 -0.19142997428E+02  0.93737113025E+02  0.12500000000E+03  0.80419002446E+02 0.  1.
        -24    1    1    2    0    0  0.21641018561E+01  0.19142997428E+02 -0.93737113025E+02  0.12500000000E+03  0.80419002446E+02 0. -1.
</event>
<event>
 4    1  0.1586888E-001  0.1250000E+03  0.7546771E-02  0.1126479E+00
        -11   -1    0    0    0    0  0.00000000000E+00  0.00000000000E+00  0.12500000000E+03  0.12500000000E+03  0.00000000000E+00 0.  1.
         11   -1    0    0    0    0 -0.00000000000E+00 -0.00000000000E+00 -0.12500000000E+03  0.12500000000E+03  0.00000000000E+00 0. -1.
         24    1    1    2    0    0 -0.30512304131E+02 -0.66155867241E+01  0.90460031807E+02  0.12500000000E+03  0.80419002446E+02 0.  1.
        -24    1    1    2    0    0  0.30512304131E+02  0.66155867241E+01 -0.90460031807E+02  0.12500000000E+03  0.80419002446E+02 0. -1.
</event>
<event>
 4    1  0.1586888E-001  0.1250000E+03  0.7546771E-02  0.1126479E+00
        -11   -1    0    0    0    0  0.00000000000E+00  0.00000000000E+00  0.12500000000E+03  0.12500000000E+03  0.00000000000E+00 0.  1.
         11   -1    0    0    0    0 -0.00000000000E+00 -0.00000000000E+00 -0.12500000000E+03  0.12500000000E+03  0.00000000000E+00 0. -1.
         24    1    1    2    0    0 -0.53821535836E+02 -0.65182854084E+02 -0.44857795971E+02  0.12500000000E+03  0.80419002446E+02 0. -1.
        -24    1    1    2    0    0  0.53821535836E+02  0.65182854084E+02  0.44857795971E+02  0.12500000000E+03  0.80419002446E+02 0.  1.
</event>
<event>
 4    1  0.1586888E-001  0.1250000E+03  0.7546771E-02  0.1126479E+00
        -11   -1    0    0    0    0  0.00000000000E+00  0.00000000000E+00  0.12500000000E+03  0.12500000000E+03  0.00000000000E+00 0.  1.
         11   -1    0    0    0    0 -0.00000000000E+00 -0.00000000000E+00 -0.12500000000E+03  0.12500000000E+03  0.00000000000E+00 0. -1.
         24    1    1    2    0    0  0.23101633452E+02 -0.99090881902E+01  0.92335846499E+02  0.12500000000E+03  0.80419002446E+02 0.  1.
        -24    1    1    2    0    0 -0.23101633452E+02  0.99090881902E+01 -0.92335846499E+02  0.12500000000E+03  0.80419002446E+02 0.  0.
</event>
<event>
 4    1  0.1586888E-001  0.1250000E+03  0.7546771E-02  0.1126479E+00
        -11   -1    0    0    0    0  0.00000000000E+00  0.00000000000E+00  0.12500000000E+03  0.12500000000E+03  0.00000000000E+00 0.  1.
         11   -1    0    0    0    0 -0.00000000000E+00 -0.00000000000E+00 -0.12500000000E+03  0.12500000000E+03  0.00000000000E+00 0. -1.
         24    1    1    2    0    0 -0.68100947553E+02 -0.56363910512E+02  0.36649073382E+02  0.12500000000E+03  0.80419002446E+02 0.  1.
        -24    1    1    2    0    0  0.68100947553E+02  0.56363910512E+02 -0.36649073382E+02  0.12500000000E+03  0.80419002446E+02 0. -1.
</event>
<event>
 4    1  0.1586888E-001  0.1250000E+03  0.7546771E-02  0.1126479E+00
        -11   -1    0    0    0    0  0.00000000000E+00  0.00000000000E+00  0.12500000000E+03  0.12500000000E+03  0.00000000000E+00 0.  1.
         11   -1    0    0    0    0 -0.00000000000E+00 -0.00000000000E+00 -0.12500000000E+03  0.12500000000E+03  0.00000000000E+00 0. -1.
         24    1    1    2    0    0 -0.16571865391E+02 -0.23129888744E+02  0.91368296305E+02  0.12500000000E+03  0.80419002446E+02 0.  0.
        -24    1    1    2    0    0  0.16571865391E+02  0.23129888744E+02 -0.91368296305E+02  0.12500000000E+03  0.80419002446E+02 0. -1.
</event>
<event>
 4    1  0.1586888E-001  0.1250000E+03  0.7546771E-02  0.1126479E+00
        -11   -1    0    0    0    0  0.00000000000E+00  0.00000000000E+00  0.12500000000E+03  0.12500000000E+03  0.00000000000E+00 0.  1.
         11   -1    0    0    0    0 -0.00000000000E+00 -0.00000000000E+00 -0.12500000000E+03  0.12500000000E+03  0.00000000000E+00 0. -1.
         24    1    1    2    0    0 -0.62837028387E+02  0.77815851068E+01  0.71754713033E+02  0.12500000000E+03  0.80419002446E+02 0.  1.
        -24    1    1    2    0    0  0.62837028387E+02 -0.77815851068E+01 -0.71754713033E+02  0.12500000000E+03  0.80419002446E+02 0. -1.
</event>
<event>
 4    1  0.1586888E-001  0.1250000E+03  0.7546771E-02  0.1126479E+00
        -11   -1    0    0    0    0  0.00000000000E+00  0.00000000000E+00  0.12500000000E+03  0.12500000000E+03  0.00000000000E+00 0.  1.
         11   -1    0    0    0    0 -0.00000000000E+00 -0.00000000000E+00 -0.12500000000E+03  0.12500000000E+03  0.00000000000E+00 0. -1.
         24    1    1    2    0    0 -0.62191589215E+02  0.50675034285E+02  0.52173088626E+02  0.12500000000E+03  0.80419002446E+02 0.  0.
        -24    1    1    2    0    0  0.62191589215E+02 -0.50675034285E+02 -0.52173088626E+02  0.12500000000E+03  0.80419002446E+02 0.  1.
</event>
<event>
 4    1  0.1586888E-001  0.1250000E+03  0.7546771E-02  0.1126479E+00
        -11   -1    0    0    0    0  0.00000000000E+00  0.00000000000E+00  0.12500000000E+03  0.12500000000E+03  0.00000000000E+00 0.  1.
         11   -1    0    0    0    0 -0.00000000000E+00 -0.00000000000E+00 -0.12500000000E+03  0.12500000000E+03  0.00000000000E+00 0. -1.
         24    1    1    2    0    0  0.17056069012E+02  0.52321695662E+01  0.94018609632E+02  0.12500000000E+03  0.80419002446E+02 0.  1.
        -24    1    1    2    0    0 -0.17056069012E+02 -0.52321695662E+01 -0.94018609632E+02  0.12500000000E+03  0.80419002446E+02 0. -1.
</event>
<event>
 4    1  0.1586888E-001  0.1250000E+03  0.7546771E-02  0.1126479E+00
        -11   -1    0    0    0    0  0.00000000000E+00  0.00000000000E+00  0.12500000000E+03  0.12500000000E+03  0.00000000000E+00 0.  1.
         11   -1    0    0    0    0 -0.00000000000E+00 -0.00000000000E+00 -0.12500000000E+03  0.12500000000E+03  0.00000000000E+00 0. -1.
         24    1    1    2    0    0 -0.26347277415E+02 -0.14252728064E+02  0.90887098981E+02  0.12500000000E+03  0.80419002446E+02 0.  1.
        -24    1    1    2    0    0  0.26347277415E+02  0.14252728064E+02 -0.90887098981E+02  0.12500000000E+03  0.80419002446E+02 0. -1.
</event>
<event>
 4    1  0.1586888E-001  0.1250000E+03  0.7546771E-02  0.1126479E+00
        -11   -1    0    0    0    0  0.00000000000E+00  0.00000000000E+00  0.12500000000E+03  0.12500000000E+03  0.00000000000E+00 0.  1.
         11   -1    0    0    0    0 -0.00000000000E+00 -0.00000000000E+00 -0.12500000000E+03  0.12500000000E+03  0.00000000000E+00 0. -1.
         24    1    1    2    0    0 -0.73404037037E+02 -0.26218007500E+02  0.55517992354E+02  0.12500000000E+03  0.80419002446E+02 0.  1.
        -24    1    1    2    0    0  0.73404037037E+02  0.26218007500E+02 -0.55517992354E+02  0.12500000000E+03  0.80419002446E+02 0. -1.
</event>
<event>
 4    1  0.1586888E-001  0.1250000E+03  0.7546771E-02  0.1126479E+00
        -11   -1    0    0    0    0  0.00000000000E+00  0.00000000000E+00  0.12500000000E+03  0.12500000000E+03  0.00000000000E+00 0.  1.
         11   -1    0    0    0    0 -0.00000000000E+00 -0.00000000000E+00 -0.12500000000E+03  0.12500000000E+03  0.00000000000E+00 0. -1.
         24    1    1    2    0    0 -0.30505515178E+02  0.51905661726E+01  0.90555262752E+02  0.12500000000E+03  0.80419002446E+02 0.  1.
        -24    1    1    2    0    0  0.30505515178E+02 -0.51905661726E+01 -0.90555262752E+02  0.12500000000E+03  0.80419002446E+02 0. -1.
</event>
<event>
 4    1  0.1586888E-001  0.1250000E+03  0.7546771E-02  0.1126479E+00
        -11   -1    0    0    0    0  0.00000000000E+00  0.00000000000E+00  0.12500000000E+03  0.12500000000E+03  0.00000000000E+00 0.  1.
         11   -1    0    0    0    0 -0.00000000000E+00 -0.00000000000E+00 -0.12500000000E+03  0.12500000000E+03  0.00000000000E+00 0. -1.
         24    1    1    2    0    0  0.71255843082E+02 -0.32736147356E+02  0.54851923655E+02  0.12500000000E+03  0.80419002446E+02 0.  1.
        -24    1    1    2    0    0 -0.71255843082E+02  0.32736147356E+02 -0.54851923655E+02  0.12500000000E+03  0.80419002446E+02 0. -1.
</event>
<event>
 4    1  0.1586888E-001  0.1250000E+03  0.7546771E-02  0.1126479E+00
        -11   -1    0    0    0    0  0.00000000000E+00  0.00000000000E+00  0.12500000000E+03  0.12500000000E+03  0.00000000000E+00 0.  1.
         11   -1    0    0    0    0 -0.00000000000E+00 -0.00000000000E+00 -0.12500000000E+03  0.12500000000E+03  0.00000000000E+00 0. -1.
         24    1    1    2    0    0 -0.18512285497E+02  0.89529666600E+02  0.28275751622E+02  0.12500000000E+03  0.80419002446E+02 0.  1.
        -24    1    1    2    0    0  0.18512285497E+02 -0.89529666600E+02 -0.28275751622E+02  0.12500000000E+03  0.80419002446E+02 0.  0.
</event>
<event>
 4    1  0.1586888E-001  0.1250000E+03  0.7546771E-02  0.1126479E+00
        -11   -1    0    0    0    0  0.00000000000E+00  0.00000000000E+00  0.12500000000E+03  0.12500000000E+03  0.00000000000E+00 0.  1.
         11   -1    0    0    0    0 -0.00000000000E+00 -0.00000000000E+00 -0.12500000000E+03  0.12500000000E+03  0.00000000000E+00 0. -1.
         24    1    1    2    0    0 -0.82235305406E+02  0.31535575262E+02  0.37425206522E+02  0.12500000000E+03  0.80419002446E+02 0.  0.
        -24    1    1    2    0    0  0.82235305406E+02 -0.31535575262E+02 -0.37425206522E+02  0.12500000000E+03  0.80419002446E+02 0. -1.
</event>
<event>
 4    1  0.1586888E-001  0.1250000E+03  0.7546771E-02  0.1126479E+00
        -11   -1    0    0    0    0  0.00000000000E+00  0.00000000000E+00  0.12500000000E+03  0.12500000000E+03  0.00000000000E+00 0.  1.
         11   -1    0    0    0    0 -0.00000000000E+00 -0.00000000000E+00 -0.12500000000E+03  0.12500000000E+03  0.00000000000E+00 0. -1.
         24    1    1    2    0    0  0.36290283530E+02 -0.16115131149E+02  0.87069523457E+02  0.12500000000E+03  0.80419002446E+02 0.  1.
        -24    1    1    2    0    0 -0.36290283530E+02  0.16115131149E+02 -0.87069523457E+02  0.12500000000E+03  0.80419002446E+02 0. -1.
</event>
<event>
 4    1  0.1586888E-001  0.1250000E+03  0.7546771E-02  0.1126479E+00
        -11   -1    0    0    0    0  0.00000000000E+00  0.00000000000E+00  0.12500000000E+03  0.12500000000E+03  0.00000000000E+00 0.  1.
         11   -1    0    0    0    0 -0.00000000000E+00 -0.00000000000E+00 -0.12500000000E+03  0.12500000000E+03  0.00000000000E+00 0. -1.
         24    1    1    2    0    0  0.16634913485E+02  0.28487978111E+02  0.89830389079E+02  0.12500000000E+03  0.80419002446E+02 0.  1.
        -24    1    1    2    0    0 -0.16634913485E+02 -0.28487978111E+02 -0.89830389079E+02  0.12500000000E+03  0.80419002446E+02 0. -1.
</event>
<event>
 4    1  0.1586888E-001  0.1250000E+03  0.7546771E-02  0.1126479E+00
        -11   -1    0    0    0    0  0.00000000000E+00  0.00000000000E+00  0.12500000000E+03  0.12500000000E+03  0.00000000000E+00 0.  1.
         11   -1    0    0    0    0 -0.00000000000E+00 -0.00000000000E+00 -0.12500000000E+03  0.12500000000E+03  0.00000000000E+00 0. -1.
         24    1    1    2    0    0  0.30023924436E+02 -0.12446778673E+02  0.90007920250E+02  0.12500000000E+03  0.80419002446E+02 0.  1.
        -24    1    1    2    0    0 -0.30023924436E+02  0.12446778673E+02 -0.90007920250E+02  0.12500000000E+03  0.80419002446E+02 0. -1.
</event>
<event>
 4    1  0.1586888E-001  0.1250000E+03  0.7546771E-02  0.1126479E+00
        -11   -1    0    0    0    0  0.00000000000E+00  0.00000000000E+00  0.12500000000E+03  0.12500000000E+03  0.00000000000E+00 0.  1.
         11   -1    0    0    0    0 -0.00000000000E+00 -0.00000000000E+00 -0.12500000000E+03  0.12500000000E+03  0.00000000000E+00 0. -1.
         24    1    1    2    0    0 -0.15586553651E+02  0.50615515438E+02  0.79705162868E+02  0.12500000000E+03  0.80419002446E+02 0.  1.
        -24    1    1    2    0    0  0.15586553651E+02 -0.50615515438E+02 -0.79705162868E+02  0.12500000000E+03  0.80419002446E+02 0. -1.
</event>
<event>
 4    1  0.1586888E-001  0.1250000E+03  0.7546771E-02  0.1126479E+00
        -11   -1    0    0    0    0  0.00000000000E+00  0.00000000000E+00  0.12500000000E+03  0.12500000000E+03  0.00000000000E+00 0.  1.
         11   -1    0    0    0    0 -0.00000000000E+00 -0.00000000000E+00 -0.12500000000E+03  0.12500000000E+03  0.00000000000E+00 0. -1.
         24    1    1    2    0    0  0.10716797400E+02 -0.21072378008E+02  0.92730195644E+02  0.12500000000E+03  0.80419002446E+02 0.  0.
        -24    1    1    2    0    0 -0.10716797400E+02  0.21072378008E+02 -0.92730195644E+02  0.12500000000E+03  0.80419002446E+02 0. -1.
</event>
<event>
 4    1  0.1586888E-001  0.1250000E+03  0.7546771E-02  0.1126479E+00
        -11   -1    0    0    0    0  0.00000000000E+00  0.00000000000E+00  0.12500000000E+03  0.12500000000E+03  0.00000000000E+00 0.  1.
         11   -1    0    0    0    0 -0.00000000000E+00 -0.00000000000E+00 -0.12500000000E+03  0.12500000000E+03  0.00000000000E+00 0. -1.
         24    1    1    2    0    0 -0.12911983985E+02 -0.15779471415E+02  0.93499053455E+02  0.12500000000E+03  0.80419002446E+02 0.  1.
        -24    1    1    2    0    0  0.12911983985E+02  0.15779471415E+02 -0.93499053455E+02  0.12500000000E+03  0.80419002446E+02 0. -1.
</event>
<event>
 4    1  0.1586888E-001  0.1250000E+03  0.7546771E-02  0.1126479E+00
        -11   -1    0    0    0    0  0.00000000000E+00  0.00000000000E+00  0.12500000000E+03  0.12500000000E+03  0.00000000000E+00 0.  1.
         11   -1    0    0    0    0 -0.00000000000E+00 -0.00000000000E+00 -0.12500000000E+03  0.12500000000E+03  0.00000000000E+00 0. -1.
         24    1    1    2    0    0 -0.22496767615E+02  0.38559722008E+02  0.84645303066E+02  0.12500000000E+03  0.80419002446E+02 0.  0.
        -24    1    1    2    0    0  0.22496767615E+02 -0.38559722008E+02 -0.84645303066E+02  0.12500000000E+03  0.80419002446E+02 0.  0.
</event>
<event>
 4    1  0.1586888E-001  0.1250000E+03  0.7546771E-02  0.1126479E+00
        -11   -1    0    0    0    0  0.00000000000E+00  0.00000000000E+00  0.12500000000E+03  0.12500000000E+03  0.00000000000E+00 0.  1.
         11   -1    0    0    0    0 -0.00000000000E+00 -0.00000000000E+00 -0.12500000000E+03  0.12500000000E+03  0.00000000000E+00 0. -1.
         24    1    1    2    0    0  0.41459911124E+02  0.58053768233E+01  0.86053224316E+02  0.12500000000E+03  0.80419002446E+02 0.  1.
        -24    1    1    2    0    0 -0.41459911124E+02 -0.58053768233E+01 -0.86053224316E+02  0.12500000000E+03  0.80419002446E+02 0. -1.
</event>
<event>
 4    1  0.1586888E-001  0.1250000E+03  0.7546771E-02  0.1126479E+00
        -11   -1    0    0    0    0  0.00000000000E+00  0.00000000000E+00  0.12500000000E+03  0.12500000000E+03  0.00000000000E+00 0.  1.
         11   -1    0    0    0    0 -0.00000000000E+00 -0.00000000000E+00 -0.12500000000E+03  0.12500000000E+03  0.00000000000E+00 0. -1.
         24    1    1    2    0    0  0.12740566241E+02 -0.14967251580E+02  0.93655984313E+02  0.12500000000E+03  0.80419002446E+02 0.  1.
        -24    1    1    2    0    0 -0.12740566241E+02  0.14967251580E+02 -0.93655984313E+02  0.12500000000E+03  0.80419002446E+02 0. -1.
</event>
<event>
 4    1  0.1586888E-001  0.1250000E+03  0.7546771E-02  0.1126479E+00
        -11   -1    0    0    0    0  0.00000000000E+00  0.00000000000E+00  0.12500000000E+03  0.12500000000E+03  0.00000000000E+00 0.  1.
         11   -1    0    0    0    0 -0.00000000000E+00 -0.00000000000E+00 -0.12500000000E+03  0.12500000000E+03  0.00000000000E+00 0. -1.
         24    1    1    2    0    0  0.12577068356E+02 -0.21257382871E+02  0.92453907817E+02  0.12500000000E+03  0.80419002446E+02 0.  0.
        -24    1    1    2    0    0 -0.12577068356E+02  0.21257382871E+02 -0.92453907817E+02  0.12500000000E+03  0.80419002446E+02 0. -1.
</event>
<event>
 4    1  0.1586888E-001  0.1250000E+03  0.7546771E-02  0.1126479E+00
        -11   -1    0    0    0    0  0.00000000000E+00  0.00000000000E+00  0.12500000000E+03  0.12500000000E+03  0.00000000000E+00 0.  1.
         11   -1    0    0    0    0 -0.00000000000E+00 -0.00000000000E+00 -0.12500000000E+03  0.12500000000E+03  0.00000000000E+00 0. -1.
         24    1    1    2    0    0  0.39220653824E+02  0.54784789604E+02  0.67956980416E+02  0.12500000000E+03  0.80419002446E+02 0.  1.
        -24    1    1    2    0    0 -0.39220653824E+02 -0.54784789604E+02 -0.67956980416E+02  0.12500000000E+03  0.80419002446E+02 0. -1.
</event>
<event>
 4    1  0.1586888E-001  0.1250000E+03  0.7546771E-02  0.1126479E+00
        -11   -1    0    0    0    0  0.00000000000E+00  0.00000000000E+00  0.12500000000E+03  0.12500000000E+03  0.00000000000E+00 0.  1.
         11   -1    0    0    0    0 -0.00000000000E+00 -0.00000000000E+00 -0.12500000000E+03  0.12500000000E+03  0.00000000000E+00 0. -1.
         24    1    1    2    0    0 -0.99689128583E+01  0.61515073041E+00  0.95173664486E+02  0.12500000000E+03  0.80419002446E+02 0.  0.
        -24    1    1    2    0    0  0.99689128583E+01 -0.61515073041E+00 -0.95173664486E+02  0.12500000000E+03  0.80419002446E+02 0.  0.
</event>
<event>
 4    1  0.1586888E-001  0.1250000E+03  0.7546771E-02  0.1126479E+00
        -11   -1    0    0    0    0  0.00000000000E+00  0.00000000000E+00  0.12500000000E+03  0.12500000000E+03  0.00000000000E+00 0.  1.
         11   -1    0    0    0    0 -0.00000000000E+00 -0.00000000000E+00 -0.12500000000E+03  0.12500000000E+03  0.00000000000E+00 0. -1.
         24    1    1    2    0    0  0.31698599586E+02  0.44498915467E+00  0.90292772770E+02  0.12500000000E+03  0.80419002446E+02 0.  1.
        -24    1    1    2    0    0 -0.31698599586E+02 -0.44498915467E+00 -0.90292772770E+02  0.12500000000E+03  0.80419002446E+02 0. -1.
</event>
<event>
 4    1  0.1586888E-001  0.1250000E+03  0.7546771E-02  0.1126479E+00
        -11   -1    0    0    0    0  0.00000000000E+00  0.00000000000E+00  0.12500000000E+03  0.12500000000E+03  0.00000000000E+00 0.  1.
         11   -1    0    0    0    0 -0.00000000000E+00 -0.00000000000E+00 -0.12500000000E+03  0.12500000000E+03  0.00000000000E+00 0. -1.
         24    1    1    2    0    0  0.51485165414E+02  0.85279233610E+01  0.80214314876E+02  0.12500000000E+03  0.80419002446E+02 0.  1.
        -24    1    1    2    0    0 -0.51485165414E+02 -0.85279233610E+01 -0.80214314876E+02  0.12500000000E+03  0.80419002446E+02 0. -1.
</event>
<event>
 4    1  0.1586888E-001  0.1250000E+03  0.7546771E-02  0.1126479E+00
        -11   -1    0    0    0    0  0.00000000000E+00  0.00000000000E+00  0.12500000000E+03  0.12500000000E+03  0.00000000000E+00 0.  1.
         11   -1    0    0    0    0 -0.00000000000E+00 -0.00000000000E+00 -0.12500000000E+03  0.12500000000E+03  0.00000000000E+00 0. -1.
         24    1    1    2    0    0  0.29211255755E+02  0.53136844575E+02  0.74033521674E+02  0.12500000000E+03  0.80419002446E+02 0.  1.
        -24    1    1    2    0    0 -0.29211255755E+02 -0.53136844575E+02 -0.74033521674E+02  0.12500000000E+03  0.80419002446E+02 0. -1.
</event>
<event>
 4    1  0.1586888E-001  0.1250000E+03  0.7546771E-02  0.1126479E+00
        -11   -1    0    0    0    0  0.00000000000E+00  0.00000000000E+00  0.12500000000E+03  0.12500000000E+03  0.00000000000E+00 0.  1.
         11   -1    0    0    0    0 -0.00000000000E+00 -0.00000000000E+00 -0.12500000000E+03  0.12500000000E+03  0.00000000000E+00 0. -1.
         24    1    1    2    0    0  0.10254806834E+02 -0.11684400401E+02  0.94425090785E+02  0.12500000000E+03  0.80419002446E+02 0.  1.
        -24    1    1    2    0    0 -0.10254806834E+02  0.11684400401E+02 -0.94425090785E+02  0.12500000000E+03  0.80419002446E+02 0. -1.
</event>
<event>
 4    1  0.1586888E-001  0.1250000E+03  0.7546771E-02  0.1126479E+00
        -11   -1    0    0    0    0  0.00000000000E+00  0.00000000000E+00  0.12500000000E+03  0.12500000000E+03  0.00000000000E+00 0.  1.
         11   -1    0    0    0    0 -0.00000000000E+00 -0.00000000000E+00 -0.12500000000E+03  0.12500000000E+03  0.00000000000E+00 0. -1.
         24    1    1    2    0    0  0.60444369588E+02  0.37506759753E+02  0.64011758323E+02  0.12500000000E+03  0.80419002446E+02 0.  1.
        -24    1    1    2    0    0 -0.60444369588E+02 -0.37506759753E+02 -0.64011758323E+02  0.12500000000E+03  0.80419002446E+02 0. -1.
</event>
<event>
 4    1  0.1586888E-001  0.1250000E+03  0.7546771E-02  0.1126479E+00
        -11   -1    0    0    0    0  0.00000000000E+00  0.00000000000E+00  0.12500000000E+03  0.12500000000E+03  0.00000000000E+00 0.  1.
         11   -1    0    0    0    0 -0.00000000000E+00 -0.00000000000E+00 -0.12500000000E+03  0.12500000000E+03  0.00000000000E+00 0. -1.
         24    1    1    2    0    0 -0.17614804346E+02 -0.64528545150E+02  0.68436609898E+02  0.12500000000E+03  0.80419002446E+02 0.  1.
        -24    1    1    2    0    0  0.17614804346E+02  0.64528545150E+02 -0.68436609898E+02  0.12500000000E+03  0.80419002446E+02 0. -1.
</event>
<event>
 4    1  0.1586888E-001  0.1250000E+03  0.7546771E-02  0.1126479E+00
        -11   -1    0    0    0    0  0.00000000000E+00  0.00000000000E+00  0.12500000000E+03  0.12500000000E+03  0.00000000000E+00 0.  1.
         11   -1    0    0    0    0 -0.00000000000E+00 -0.00000000000E+00 -0.12500000000E+03  0.12500000000E+03  0.00000000000E+00 0. -1.
         24    1    1    2    0    0  0.41264929473E+02 -0.25988102024E+01  0.86303162322E+02  0.12500000000E+03  0.80419002446E+02 0.  1.
        -24    1    1    2    0    0 -0.41264929473E+02  0.25988102024E+01 -0.86303162322E+02  0.12500000000E+03  0.80419002446E+02 0. -1.
</event>
<event>
 4    1  0.1586888E-001  0.1250000E+03  0.7546771E-02  0.1126479E+00
        -11   -1    0    0    0    0  0.00000000000E+00  0.00000000000E+00  0.12500000000E+03  0.12500000000E+03  0.00000000000E+00 0.  1.
         11   -1    0    0    0    0 -0.00000000000E+00 -0.00000000000E+00 -0.12500000000E+03  0.12500000000E+03  0.00000000000E+00 0. -1.
         24    1    1    2    0    0 -0.79133691786E+02  0.39569224555E+02  0.36468059147E+02  0.12500000000E+03  0.80419002446E+02 0.  1.
        -24    1    1    2    0    0  0.79133691786E+02 -0.39569224555E+02 -0.36468059147E+02  0.12500000000E+03  0.80419002446E+02 0. -1.
</event>
<event>
 4    1  0.1586888E-001  0.1250000E+03  0.7546771E-02  0.1126479E+00
        -11   -1    0    0    0    0  0.00000000000E+00  0.00000000000E+00  0.12500000000E+03  0.12500000000E+03  0.00000000000E+00 0.  1.
         11   -1    0    0    0    0 -0.00000000000E+00 -0.00000000000E+00 -0.12500000000E+03  0.12500000000E+03  0.00000000000E+00 0. -1.
         24    1    1    2    0    0  0.94758298640E+02 -0.93265335655E+00  0.13333380750E+02  0.12500000000E+03  0.80419002446E+02 0. -1.
        -24    1    1    2    0    0 -0.94758298640E+02  0.93265335655E+00 -0.13333380750E+02  0.12500000000E+03  0.80419002446E+02 0.  1.
</event>
<event>
 4    1  0.1586888E-001  0.1250000E+03  0.7546771E-02  0.1126479E+00
        -11   -1    0    0    0    0  0.00000000000E+00  0.00000000000E+00  0.12500000000E+03  0.12500000000E+03  0.00000000000E+00 0.  1.
         11   -1    0    0    0    0 -0.00000000000E+00 -0.00000000000E+00 -0.12500000000E+03  0.12500000000E+03  0.00000000000E+00 0. -1.
         24    1    1    2    0    0 -0.26423681737E+02 -0.69840367322E+02 -0.59848944698E+02  0.12500000000E+03  0.80419002446E+02 0. -1.
        -24    1    1    2    0    0  0.26423681737E+02  0.69840367322E+02  0.59848944698E+02  0.12500000000E+03  0.80419002446E+02 0.  1.
</event>
<event>
 4    1  0.1586888E-001  0.1250000E+03  0.7546771E-02  0.1126479E+00
        -11   -1    0    0    0    0  0.00000000000E+00  0.00000000000E+00  0.12500000000E+03  0.12500000000E+03  0.00000000000E+00 0.  1.
         11   -1    0    0    0    0 -0.00000000000E+00 -0.00000000000E+00 -0.12500000000E+03  0.12500000000E+03  0.00000000000E+00 0. -1.
         24    1    1    2    0    0  0.58451921942E+01 -0.20269647089E+02  0.93342161860E+02  0.12500000000E+03  0.80419002446E+02 0.  1.
        -24    1    1    2    0    0 -0.58451921942E+01  0.20269647089E+02 -0.93342161860E+02  0.12500000000E+03  0.80419002446E+02 0. -1.
</event>
<event>
 4    1  0.1586888E-001  0.1250000E+03  0.7546771E-02  0.1126479E+00
        -11   -1    0    0    0    0  0.00000000000E+00  0.00000000000E+00  0.12500000000E+03  0.12500000000E+03  0.00000000000E+00 0.  1.
         11   -1    0    0    0    0 -0.00000000000E+00 -0.00000000000E+00 -0.12500000000E+03  0.12500000000E+03  0.00000000000E+00 0. -1.
         24    1    1    2    0    0  0.21758458467E+01 -0.13941229559E+02  0.94650366396E+02  0.12500000000E+03  0.80419002446E+02 0.  1.
        -24    1    1    2    0    0 -0.21758458467E+01  0.13941229559E+02 -0.94650366396E+02  0.12500000000E+03  0.80419002446E+02 0. -1.
</event>
<event>
 4    1  0.1586888E-001  0.1250000E+03  0.7546771E-02  0.1126479E+00
        -11   -1    0    0    0    0  0.00000000000E+00  0.00000000000E+00  0.12500000000E+03  0.12500000000E+03  0.00000000000E+00 0.  1.
         11   -1    0    0    0    0 -0.00000000000E+00 -0.00000000000E+00 -0.12500000000E+03  0.12500000000E+03  0.00000000000E+00 0. -1.
         24    1    1    2    0    0 -0.10395711297E+02 -0.11464528662E+02  0.94436633860E+02  0.12500000000E+03  0.80419002446E+02 0.  1.
        -24    1    1    2    0    0  0.10395711297E+02  0.11464528662E+02 -0.94436633860E+02  0.12500000000E+03  0.80419002446E+02 0. -1.
</event>
<event>
 4    1  0.1586888E-001  0.1250000E+03  0.7546771E-02  0.1126479E+00
        -11   -1    0    0    0    0  0.00000000000E+00  0.00000000000E+00  0.12500000000E+03  0.12500000000E+03  0.00000000000E+00 0.  1.
         11   -1    0    0    0    0 -0.00000000000E+00 -0.00000000000E+00 -0.12500000000E+03  0.12500000000E+03  0.00000000000E+00 0. -1.
         24    1    1    2    0    0  0.43108164018E+01  0.46499777100E+02  0.83528268492E+02  0.12500000000E+03  0.80419002446E+02 0.  0.
        -24    1    1    2    0    0 -0.43108164018E+01 -0.46499777100E+02 -0.83528268492E+02  0.12500000000E+03  0.80419002446E+02 0.  0.
</event>
<event>
 4    1  0.1586888E-001  0.1250000E+03  0.7546771E-02  0.1126479E+00
        -11   -1    0    0    0    0  0.00000000000E+00  0.00000000000E+00  0.12500000000E+03  0.12500000000E+03  0.00000000000E+00 0.  1.
         11   -1    0    0    0    0 -0.00000000000E+00 -0.00000000000E+00 -0.12500000000E+03  0.12500000000E+03  0.00000000000E+00 0. -1.
         24    1    1    2    0    0 -0.59463901290E+02 -0.22706985922E+02  0.71457828678E+02  0.12500000000E+03  0.80419002446E+02 0.  1.
        -24    1    1    2    0    0  0.59463901290E+02  0.22706985922E+02 -0.71457828678E+02  0.12500000000E+03  0.80419002446E+02 0. -1.
</event>
<event>
 4    1  0.1586888E-001  0.1250000E+03  0.7546771E-02  0.1126479E+00
        -11   -1    0    0    0    0  0.00000000000E+00  0.00000000000E+00  0.12500000000E+03  0.12500000000E+03  0.00000000000E+00 0.  1.
         11   -1    0    0    0    0 -0.00000000000E+00 -0.00000000000E+00 -0.12500000000E+03  0.12500000000E+03  0.00000000000E+00 0. -1.
         24    1    1    2    0    0  0.40279365400E+02  0.81270562951E+02  0.30503317298E+02  0.12500000000E+03  0.80419002446E+02 0.  0.
        -24    1    1    2    0    0 -0.40279365400E+02 -0.81270562951E+02 -0.30503317298E+02  0.12500000000E+03  0.80419002446E+02 0.  0.
</event>
<event>
 4    1  0.1586888E-001  0.1250000E+03  0.7546771E-02  0.1126479E+00
        -11   -1    0    0    0    0  0.00000000000E+00  0.00000000000E+00  0.12500000000E+03  0.12500000000E+03  0.00000000000E+00 0.  1.
         11   -1    0    0    0    0 -0.00000000000E+00 -0.00000000000E+00 -0.12500000000E+03  0.12500000000E+03  0.00000000000E+00 0. -1.
         24    1    1    2    0    0  0.62504671184E+02  0.46047116563E+02 -0.55951882740E+02  0.12500000000E+03  0.80419002446E+02 0. -1.
        -24    1    1    2    0    0 -0.62504671184E+02 -0.46047116563E+02  0.55951882740E+02  0.12500000000E+03  0.80419002446E+02 0.  1.
</event>
<event>
 4    1  0.1586888E-001  0.1250000E+03  0.7546771E-02  0.1126479E+00
        -11   -1    0    0    0    0  0.00000000000E+00  0.00000000000E+00  0.12500000000E+03  0.12500000000E+03  0.00000000000E+00 0.  1.
         11   -1    0    0    0    0 -0.00000000000E+00 -0.00000000000E+00 -0.12500000000E+03  0.12500000000E+03  0.00000000000E+00 0. -1.
         24    1    1    2    0    0  0.12917184547E+02 -0.17074941721E+02  0.93270449523E+02  0.12500000000E+03  0.80419002446E+02 0.  1.
        -24    1    1    2    0    0 -0.12917184547E+02  0.17074941721E+02 -0.93270449523E+02  0.12500000000E+03  0.80419002446E+02 0. -1.
</event>
<event>
 4    1  0.1586888E-001  0.1250000E+03  0.7546771E-02  0.1126479E+00
        -11   -1    0    0    0    0  0.00000000000E+00  0.00000000000E+00  0.12500000000E+03  0.12500000000E+03  0.00000000000E+00 0.  1.
         11   -1    0    0    0    0 -0.00000000000E+00 -0.00000000000E+00 -0.12500000000E+03  0.12500000000E+03  0.00000000000E+00 0. -1.
         24    1    1    2    0    0  0.77218518788E+02 -0.56443032483E+02 -0.30444188281E+01  0.12500000000E+03  0.80419002446E+02 0.  1.
        -24    1    1    2    0    0 -0.77218518788E+02  0.56443032483E+02  0.30444188281E+01  0.12500000000E+03  0.80419002446E+02 0. -1.
</event>
<event>
 4    1  0.1586888E-001  0.1250000E+03  0.7546771E-02  0.1126479E+00
        -11   -1    0    0    0    0  0.00000000000E+00  0.00000000000E+00  0.12500000000E+03  0.12500000000E+03  0.00000000000E+00 0.  1.
         11   -1    0    0    0    0 -0.00000000000E+00 -0.00000000000E+00 -0.12500000000E+03  0.12500000000E+03  0.00000000000E+00 0. -1.
         24    1    1    2    0    0 -0.54977918233E+01 -0.19252832890E+02  0.93578238691E+02  0.12500000000E+03  0.80419002446E+02 0.  1.
        -24    1    1    2    0    0  0.54977918233E+01  0.19252832890E+02 -0.93578238691E+02  0.12500000000E+03  0.80419002446E+02 0. -1.
</event>
<event>
 4    1  0.1586888E-001  0.1250000E+03  0.7546771E-02  0.1126479E+00
        -11   -1    0    0    0    0  0.00000000000E+00  0.00000000000E+00  0.12500000000E+03  0.12500000000E+03  0.00000000000E+00 0.  1.
         11   -1    0    0    0    0 -0.00000000000E+00 -0.00000000000E+00 -0.12500000000E+03  0.12500000000E+03  0.00000000000E+00 0. -1.
         24    1    1    2    0    0 -0.38250501345E+02 -0.48189497528E+02  0.73297036232E+02  0.12500000000E+03  0.80419002446E+02 0.  1.
        -24    1    1    2    0    0  0.38250501345E+02  0.48189497528E+02 -0.73297036232E+02  0.12500000000E+03  0.80419002446E+02 0. -1.
</event>
<event>
 4    1  0.1586888E-001  0.1250000E+03  0.7546771E-02  0.1126479E+00
        -11   -1    0    0    0    0  0.00000000000E+00  0.00000000000E+00  0.12500000000E+03  0.12500000000E+03  0.00000000000E+00 0.  1.
         11   -1    0    0    0    0 -0.00000000000E+00 -0.00000000000E+00 -0.12500000000E+03  0.12500000000E+03  0.00000000000E+00 0. -1.
         24    1    1    2    0    0 -0.64014641902E+02 -0.41969955099E+02  0.57431981829E+02  0.12500000000E+03  0.80419002446E+02 0.  0.
        -24    1    1    2    0    0  0.64014641902E+02  0.41969955099E+02 -0.57431981829E+02  0.12500000000E+03  0.80419002446E+02 0.  1.
</event>
<event>
 4    1  0.1586888E-001  0.1250000E+03  0.7546771E-02  0.1126479E+00
        -11   -1    0    0    0    0  0.00000000000E+00  0.00000000000E+00  0.12500000000E+03  0.12500000000E+03  0.00000000000E+00 0.  1.
         11   -1    0    0    0    0 -0.00000000000E+00 -0.00000000000E+00 -0.12500000000E+03  0.12500000000E+03  0.00000000000E+00 0. -1.
         24    1    1    2    0    0  0.68032415581E+02 -0.25526890561E+02  0.62271601346E+02  0.12500000000E+03  0.80419002446E+02 0.  1.
        -24    1    1    2    0    0 -0.68032415581E+02  0.25526890561E+02 -0.62271601346E+02  0.12500000000E+03  0.80419002446E+02 0. -1.
</event>
<event>
 4    1  0.1586888E-001  0.1250000E+03  0.7546771E-02  0.1126479E+00
        -11   -1    0    0    0    0  0.00000000000E+00  0.00000000000E+00  0.12500000000E+03  0.12500000000E+03  0.00000000000E+00 0.  1.
         11   -1    0    0    0    0 -0.00000000000E+00 -0.00000000000E+00 -0.12500000000E+03  0.12500000000E+03  0.00000000000E+00 0. -1.
         24    1    1    2    0    0 -0.43592008350E+02  0.56818491049E+02  0.63475821606E+02  0.12500000000E+03  0.80419002446E+02 0.  1.
        -24    1    1    2    0    0  0.43592008350E+02 -0.56818491049E+02 -0.63475821606E+02  0.12500000000E+03  0.80419002446E+02 0. -1.
</event>
<event>
 4    1  0.1586888E-001  0.1250000E+03  0.7546771E-02  0.1126479E+00
        -11   -1    0    0    0    0  0.00000000000E+00  0.00000000000E+00  0.12500000000E+03  0.12500000000E+03  0.00000000000E+00 0.  1.
         11   -1    0    0    0    0 -0.00000000000E+00 -0.00000000000E+00 -0.12500000000E+03  0.12500000000E+03  0.00000000000E+00 0. -1.
         24    1    1    2    0    0 -0.50623722901E+02  0.44492335573E+02  0.67937138596E+02  0.12500000000E+03  0.80419002446E+02 0.  1.
        -24    1    1    2    0    0  0.50623722901E+02 -0.44492335573E+02 -0.67937138596E+02  0.12500000000E+03  0.80419002446E+02 0. -1.
</event>
<event>
 4    1  0.1586888E-001  0.1250000E+03  0.7546771E-02  0.1126479E+00
        -11   -1    0    0    0    0  0.00000000000E+00  0.00000000000E+00  0.12500000000E+03  0.12500000000E+03  0.00000000000E+00 0.  1.
         11   -1    0    0    0    0 -0.00000000000E+00 -0.00000000000E+00 -0.12500000000E+03  0.12500000000E+03  0.00000000000E+00 0. -1.
         24    1    1    2    0    0 -0.56682901737E+02  0.63643445823E+02  0.43524068056E+02  0.12500000000E+03  0.80419002446E+02 0.  1.
        -24    1    1    2    0    0  0.56682901737E+02 -0.63643445823E+02 -0.43524068056E+02  0.12500000000E+03  0.80419002446E+02 0. -1.
</event>
<event>
 4    1  0.1586888E-001  0.1250000E+03  0.7546771E-02  0.1126479E+00
        -11   -1    0    0    0    0  0.00000000000E+00  0.00000000000E+00  0.12500000000E+03  0.12500000000E+03  0.00000000000E+00 0.  1.
         11   -1    0    0    0    0 -0.00000000000E+00 -0.00000000000E+00 -0.12500000000E+03  0.12500000000E+03  0.00000000000E+00 0. -1.
         24    1    1    2    0    0 -0.88047752975E+02 -0.22151687506E+01  0.37422857575E+02  0.12500000000E+03  0.80419002446E+02 0.  1.
        -24    1    1    2    0    0  0.88047752975E+02  0.22151687506E+01 -0.37422857575E+02  0.12500000000E+03  0.80419002446E+02 0. -1.
</event>
<event>
 4    1  0.1586888E-001  0.1250000E+03  0.7546771E-02  0.1126479E+00
        -11   -1    0    0    0    0  0.00000000000E+00  0.00000000000E+00  0.12500000000E+03  0.12500000000E+03  0.00000000000E+00 0.  1.
         11   -1    0    0    0    0 -0.00000000000E+00 -0.00000000000E+00 -0.12500000000E+03  0.12500000000E+03  0.00000000000E+00 0. -1.
         24    1    1    2    0    0 -0.10273147187E+02 -0.18227900421E+02  0.93380887438E+02  0.12500000000E+03  0.80419002446E+02 0.  1.
        -24    1    1    2    0    0  0.10273147187E+02  0.18227900421E+02 -0.93380887438E+02  0.12500000000E+03  0.80419002446E+02 0. -1.
</event>
<event>
 4    1  0.1586888E-001  0.1250000E+03  0.7546771E-02  0.1126479E+00
        -11   -1    0    0    0    0  0.00000000000E+00  0.00000000000E+00  0.12500000000E+03  0.12500000000E+03  0.00000000000E+00 0.  1.
         11   -1    0    0    0    0 -0.00000000000E+00 -0.00000000000E+00 -0.12500000000E+03  0.12500000000E+03  0.00000000000E+00 0. -1.
         24    1    1    2    0    0 -0.21318330004E+02 -0.65467411698E+02  0.66463003671E+02  0.12500000000E+03  0.80419002446E+02 0.  0.
        -24    1    1    2    0    0  0.21318330004E+02  0.65467411698E+02 -0.66463003671E+02  0.12500000000E+03  0.80419002446E+02 0.  1.
</event>
<event>
 4    1  0.1586888E-001  0.1250000E+03  0.7546771E-02  0.1126479E+00
        -11   -1    0    0    0    0  0.00000000000E+00  0.00000000000E+00  0.12500000000E+03  0.12500000000E+03  0.00000000000E+00 0.  1.
         11   -1    0    0    0    0 -0.00000000000E+00 -0.00000000000E+00 -0.12500000000E+03  0.12500000000E+03  0.00000000000E+00 0. -1.
         24    1    1    2    0    0 -0.20661053970E+02  0.20789736331E+02  0.91097155596E+02  0.12500000000E+03  0.80419002446E+02 0.  1.
        -24    1    1    2    0    0  0.20661053970E+02 -0.20789736331E+02 -0.91097155596E+02  0.12500000000E+03  0.80419002446E+02 0. -1.
</event>
<event>
 4    1  0.1586888E-001  0.1250000E+03  0.7546771E-02  0.1126479E+00
        -11   -1    0    0    0    0  0.00000000000E+00  0.00000000000E+00  0.12500000000E+03  0.12500000000E+03  0.00000000000E+00 0.  1.
         11   -1    0    0    0    0 -0.00000000000E+00 -0.00000000000E+00 -0.12500000000E+03  0.12500000000E+03  0.00000000000E+00 0. -1.
         24    1    1    2    0    0 -0.51624903177E+02 -0.69476786919E+02  0.40812124387E+02  0.12500000000E+03  0.80419002446E+02 0.  1.
        -24    1    1    2    0    0  0.51624903177E+02  0.69476786919E+02 -0.40812124387E+02  0.12500000000E+03  0.80419002446E+02 0. -1.
</event>
<event>
 4    1  0.1586888E-001  0.1250000E+03  0.7546771E-02  0.1126479E+00
        -11   -1    0    0    0    0  0.00000000000E+00  0.00000000000E+00  0.12500000000E+03  0.12500000000E+03  0.00000000000E+00 0.  1.
         11   -1    0    0    0    0 -0.00000000000E+00 -0.00000000000E+00 -0.12500000000E+03  0.12500000000E+03  0.00000000000E+00 0. -1.
         24    1    1    2    0    0  0.33467962381E+02  0.21748591678E+02  0.86975159096E+02  0.12500000000E+03  0.80419002446E+02 0.  1.
        -24    1    1    2    0    0 -0.33467962381E+02 -0.21748591678E+02 -0.86975159096E+02  0.12500000000E+03  0.80419002446E+02 0. -1.
</event>
<event>
 4    1  0.1586888E-001  0.1250000E+03  0.7546771E-02  0.1126479E+00
        -11   -1    0    0    0    0  0.00000000000E+00  0.00000000000E+00  0.12500000000E+03  0.12500000000E+03  0.00000000000E+00 0.  1.
         11   -1    0    0    0    0 -0.00000000000E+00 -0.00000000000E+00 -0.12500000000E+03  0.12500000000E+03  0.00000000000E+00 0. -1.
         24    1    1    2    0    0  0.22860690859E+02  0.37095162414E+02  0.85200479955E+02  0.12500000000E+03  0.80419002446E+02 0.  1.
        -24    1    1    2    0    0 -0.22860690859E+02 -0.37095162414E+02 -0.85200479955E+02  0.12500000000E+03  0.80419002446E+02 0. -1.
</event>
<event>
 4    1  0.1586888E-001  0.1250000E+03  0.7546771E-02  0.1126479E+00
        -11   -1    0    0    0    0  0.00000000000E+00  0.00000000000E+00  0.12500000000E+03  0.12500000000E+03  0.00000000000E+00 0.  1.
         11   -1    0    0    0    0 -0.00000000000E+00 -0.00000000000E+00 -0.12500000000E+03  0.12500000000E+03  0.00000000000E+00 0. -1.
         24    1    1    2    0    0 -0.67705243443E+01 -0.72085667466E+01  0.95183930425E+02  0.12500000000E+03  0.80419002446E+02 0.  0.
        -24    1    1    2    0    0  0.67705243443E+01  0.72085667466E+01 -0.95183930425E+02  0.12500000000E+03  0.80419002446E+02 0. -1.
</event>
<event>
 4    1  0.1586888E-001  0.1250000E+03  0.7546771E-02  0.1126479E+00
        -11   -1    0    0    0    0  0.00000000000E+00  0.00000000000E+00  0.12500000000E+03  0.12500000000E+03  0.00000000000E+00 0.  1.
         11   -1    0    0    0    0 -0.00000000000E+00 -0.00000000000E+00 -0.12500000000E+03  0.12500000000E+03  0.00000000000E+00 0. -1.
         24    1    1    2    0    0 -0.57122885304E+02  0.86018380736E+01  0.76293960455E+02  0.12500000000E+03  0.80419002446E+02 0.  1.
        -24    1    1    2    0    0  0.57122885304E+02 -0.86018380736E+01 -0.76293960455E+02  0.12500000000E+03  0.80419002446E+02 0. -1.
</event>
<event>
 4    1  0.1586888E-001  0.1250000E+03  0.7546771E-02  0.1126479E+00
        -11   -1    0    0    0    0  0.00000000000E+00  0.00000000000E+00  0.12500000000E+03  0.12500000000E+03  0.00000000000E+00 0.  1.
         11   -1    0    0    0    0 -0.00000000000E+00 -0.00000000000E+00 -0.12500000000E+03  0.12500000000E+03  0.00000000000E+00 0. -1.
         24    1    1    2    0    0 -0.14358659373E+02  0.29649307067E+02  0.89847267833E+02  0.12500000000E+03  0.80419002446E+02 0.  1.
        -24    1    1    2    0    0  0.14358659373E+02 -0.29649307067E+02 -0.89847267833E+02  0.12500000000E+03  0.80419002446E+02 0. -1.
</event>
<event>
 4    1  0.1586888E-001  0.1250000E+03  0.7546771E-02  0.1126479E+00
        -11   -1    0    0    0    0  0.00000000000E+00  0.00000000000E+00  0.12500000000E+03  0.12500000000E+03  0.00000000000E+00 0.  1.
         11   -1    0    0    0    0 -0.00000000000E+00 -0.00000000000E+00 -0.12500000000E+03  0.12500000000E+03  0.00000000000E+00 0. -1.
         24    1    1    2    0    0 -0.42400738849E+02  0.53680438545E+01  0.85622108686E+02  0.12500000000E+03  0.80419002446E+02 0.  1.
        -24    1    1    2    0    0  0.42400738849E+02 -0.53680438545E+01 -0.85622108686E+02  0.12500000000E+03  0.80419002446E+02 0. -1.
</event>
<event>
 4    1  0.1586888E-001  0.1250000E+03  0.7546771E-02  0.1126479E+00
        -11   -1    0    0    0    0  0.00000000000E+00  0.00000000000E+00  0.12500000000E+03  0.12500000000E+03  0.00000000000E+00 0.  1.
         11   -1    0    0    0    0 -0.00000000000E+00 -0.00000000000E+00 -0.12500000000E+03  0.12500000000E+03  0.00000000000E+00 0. -1.
         24    1    1    2    0    0  0.33200370148E+02  0.85138338299E+02 -0.28407443027E+02  0.12500000000E+03  0.80419002446E+02 0. -1.
        -24    1    1    2    0    0 -0.33200370148E+02 -0.85138338299E+02  0.28407443027E+02  0.12500000000E+03  0.80419002446E+02 0.  1.
</event>
<event>
 4    1  0.1586888E-001  0.1250000E+03  0.7546771E-02  0.1126479E+00
        -11   -1    0    0    0    0  0.00000000000E+00  0.00000000000E+00  0.12500000000E+03  0.12500000000E+03  0.00000000000E+00 0.  1.
         11   -1    0    0    0    0 -0.00000000000E+00 -0.00000000000E+00 -0.12500000000E+03  0.12500000000E+03  0.00000000000E+00 0. -1.
         24    1    1    2    0    0 -0.93996639613E+01 -0.37386356399E+02  0.87588188235E+02  0.12500000000E+03  0.80419002446E+02 0.  1.
        -24    1    1    2    0    0  0.93996639613E+01  0.37386356399E+02 -0.87588188235E+02  0.12500000000E+03  0.80419002446E+02 0. -1.
</event>
<event>
 4    1  0.1586888E-001  0.1250000E+03  0.7546771E-02  0.1126479E+00
        -11   -1    0    0    0    0  0.00000000000E+00  0.00000000000E+00  0.12500000000E+03  0.12500000000E+03  0.00000000000E+00 0.  1.
         11   -1    0    0    0    0 -0.00000000000E+00 -0.00000000000E+00 -0.12500000000E+03  0.12500000000E+03  0.00000000000E+00 0. -1.
         24    1    1    2    0    0  0.30827668157E+02  0.89822812540E+02 -0.11802595863E+02  0.12500000000E+03  0.80419002446E+02 0. -1.
        -24    1    1    2    0    0 -0.30827668157E+02 -0.89822812540E+02  0.11802595863E+02  0.12500000000E+03  0.80419002446E+02 0.  1.
</event>
<event>
 4    1  0.1586888E-001  0.1250000E+03  0.7546771E-02  0.1126479E+00
        -11   -1    0    0    0    0  0.00000000000E+00  0.00000000000E+00  0.12500000000E+03  0.12500000000E+03  0.00000000000E+00 0.  1.
         11   -1    0    0    0    0 -0.00000000000E+00 -0.00000000000E+00 -0.12500000000E+03  0.12500000000E+03  0.00000000000E+00 0. -1.
         24    1    1    2    0    0  0.79962192674E-02  0.48601934954E+02  0.82435647025E+02  0.12500000000E+03  0.80419002446E+02 0.  1.
        -24    1    1    2    0    0 -0.79962192674E-02 -0.48601934954E+02 -0.82435647025E+02  0.12500000000E+03  0.80419002446E+02 0. -1.
</event>
<event>
 4    1  0.1586888E-001  0.1250000E+03  0.7546771E-02  0.1126479E+00
        -11   -1    0    0    0    0  0.00000000000E+00  0.00000000000E+00  0.12500000000E+03  0.12500000000E+03  0.00000000000E+00 0.  1.
         11   -1    0    0    0    0 -0.00000000000E+00 -0.00000000000E+00 -0.12500000000E+03  0.12500000000E+03  0.00000000000E+00 0. -1.
         24    1    1    2    0    0 -0.38023575805E+02  0.25778470051E+02  0.83949164442E+02  0.12500000000E+03  0.80419002446E+02 0.  1.
        -24    1    1    2    0    0  0.38023575805E+02 -0.25778470051E+02 -0.83949164442E+02  0.12500000000E+03  0.80419002446E+02 0. -1.
</event>
<event>
 4    1  0.1586888E-001  0.1250000E+03  0.7546771E-02  0.1126479E+00
        -11   -1    0    0    0    0  0.00000000000E+00  0.00000000000E+00  0.12500000000E+03  0.12500000000E+03  0.00000000000E+00 0.  1.
         11   -1    0    0    0    0 -0.00000000000E+00 -0.00000000000E+00 -0.12500000000E+03  0.12500000000E+03  0.00000000000E+00 0. -1.
         24    1    1    2    0    0 -0.11738708865E+02 -0.30108126698E+02  0.90074899204E+02  0.12500000000E+03  0.80419002446E+02 0.  1.
        -24    1    1    2    0    0  0.11738708865E+02  0.30108126698E+02 -0.90074899204E+02  0.12500000000E+03  0.80419002446E+02 0. -1.
</event>
<event>
 4    1  0.1586888E-001  0.1250000E+03  0.7546771E-02  0.1126479E+00
        -11   -1    0    0    0    0  0.00000000000E+00  0.00000000000E+00  0.12500000000E+03  0.12500000000E+03  0.00000000000E+00 0.  1.
         11   -1    0    0    0    0 -0.00000000000E+00 -0.00000000000E+00 -0.12500000000E+03  0.12500000000E+03  0.00000000000E+00 0. -1.
         24    1    1    2    0    0  0.22323174868E+02 -0.31921845078E+02  0.87409700356E+02  0.12500000000E+03  0.80419002446E+02 0.  1.
        -24    1    1    2    0    0 -0.22323174868E+02  0.31921845078E+02 -0.87409700356E+02  0.12500000000E+03  0.80419002446E+02 0. -1.
</event>
<event>
 4    1  0.1586888E-001  0.1250000E+03  0.7546771E-02  0.1126479E+00
        -11   -1    0    0    0    0  0.00000000000E+00  0.00000000000E+00  0.12500000000E+03  0.12500000000E+03  0.00000000000E+00 0.  1.
         11   -1    0    0    0    0 -0.00000000000E+00 -0.00000000000E+00 -0.12500000000E+03  0.12500000000E+03  0.00000000000E+00 0. -1.
         24    1    1    2    0    0  0.51832446205E+02 -0.76995914400E+00  0.80439969723E+02  0.12500000000E+03  0.80419002446E+02 0.  1.
        -24    1    1    2    0    0 -0.51832446205E+02  0.76995914400E+00 -0.80439969723E+02  0.12500000000E+03  0.80419002446E+02 0. -1.
</event>
<event>
 4    1  0.1586888E-001  0.1250000E+03  0.7546771E-02  0.1126479E+00
        -11   -1    0    0    0    0  0.00000000000E+00  0.00000000000E+00  0.12500000000E+03  0.12500000000E+03  0.00000000000E+00 0.  1.
         11   -1    0    0    0    0 -0.00000000000E+00 -0.00000000000E+00 -0.12500000000E+03  0.12500000000E+03  0.00000000000E+00 0. -1.
         24    1    1    2    0    0 -0.63068701623E+02  0.84439564479E+01  0.71476027595E+02  0.12500000000E+03  0.80419002446E+02 0.  1.
        -24    1    1    2    0    0  0.63068701623E+02 -0.84439564479E+01 -0.71476027595E+02  0.12500000000E+03  0.80419002446E+02 0. -1.
</event>
<event>
 4    1  0.1586888E-001  0.1250000E+03  0.7546771E-02  0.1126479E+00
        -11   -1    0    0    0    0  0.00000000000E+00  0.00000000000E+00  0.12500000000E+03  0.12500000000E+03  0.00000000000E+00 0.  1.
         11   -1    0    0    0    0 -0.00000000000E+00 -0.00000000000E+00 -0.12500000000E+03  0.12500000000E+03  0.00000000000E+00 0. -1.
         24    1    1    2    0    0 -0.23043439878E+01 -0.77432216530E+02  0.56184747820E+02  0.12500000000E+03  0.80419002446E+02 0.  1.
        -24    1    1    2    0    0  0.23043439878E+01  0.77432216530E+02 -0.56184747820E+02  0.12500000000E+03  0.80419002446E+02 0. -1.
</event>
<event>
 4    1  0.1586888E-001  0.1250000E+03  0.7546771E-02  0.1126479E+00
        -11   -1    0    0    0    0  0.00000000000E+00  0.00000000000E+00  0.12500000000E+03  0.12500000000E+03  0.00000000000E+00 0.  1.
         11   -1    0    0    0    0 -0.00000000000E+00 -0.00000000000E+00 -0.12500000000E+03  0.12500000000E+03  0.00000000000E+00 0. -1.
         24    1    1    2    0    0  0.45749403187E+00 -0.68356264075E+02  0.66970112040E+02  0.12500000000E+03  0.80419002446E+02 0.  1.
        -24    1    1    2    0    0 -0.45749403187E+00  0.68356264075E+02 -0.66970112040E+02  0.12500000000E+03  0.80419002446E+02 0. -1.
</event>
<event>
 4    1  0.1586888E-001  0.1250000E+03  0.7546771E-02  0.1126479E+00
        -11   -1    0    0    0    0  0.00000000000E+00  0.00000000000E+00  0.12500000000E+03  0.12500000000E+03  0.00000000000E+00 0.  1.
         11   -1    0    0    0    0 -0.00000000000E+00 -0.00000000000E+00 -0.12500000000E+03  0.12500000000E+03  0.00000000000E+00 0. -1.
         24    1    1    2    0    0 -0.67611928236E+02 -0.54650513092E+02  0.39996657669E+02  0.12500000000E+03  0.80419002446E+02 0.  0.
        -24    1    1    2    0    0  0.67611928236E+02  0.54650513092E+02 -0.39996657669E+02  0.12500000000E+03  0.80419002446E+02 0.  0.
</event>
<event>
 4    1  0.1586888E-001  0.1250000E+03  0.7546771E-02  0.1126479E+00
        -11   -1    0    0    0    0  0.00000000000E+00  0.00000000000E+00  0.12500000000E+03  0.12500000000E+03  0.00000000000E+00 0.  1.
         11   -1    0    0    0    0 -0.00000000000E+00 -0.00000000000E+00 -0.12500000000E+03  0.12500000000E+03  0.00000000000E+00 0. -1.
         24    1    1    2    0    0 -0.63405665515E+02 -0.52852005124E+02  0.48416641567E+02  0.12500000000E+03  0.80419002446E+02 0.  1.
        -24    1    1    2    0    0  0.63405665515E+02  0.52852005124E+02 -0.48416641567E+02  0.12500000000E+03  0.80419002446E+02 0. -1.
</event>
<event>
 4    1  0.1586888E-001  0.1250000E+03  0.7546771E-02  0.1126479E+00
        -11   -1    0    0    0    0  0.00000000000E+00  0.00000000000E+00  0.12500000000E+03  0.12500000000E+03  0.00000000000E+00 0.  1.
         11   -1    0    0    0    0 -0.00000000000E+00 -0.00000000000E+00 -0.12500000000E+03  0.12500000000E+03  0.00000000000E+00 0. -1.
         24    1    1    2    0    0 -0.22420435018E+02  0.14706028738E+02  0.91863163771E+02  0.12500000000E+03  0.80419002446E+02 0.  1.
        -24    1    1    2    0    0  0.22420435018E+02 -0.14706028738E+02 -0.91863163771E+02  0.12500000000E+03  0.80419002446E+02 0. -1.
</event>
<event>
 4    1  0.1586888E-001  0.1250000E+03  0.7546771E-02  0.1126479E+00
        -11   -1    0    0    0    0  0.00000000000E+00  0.00000000000E+00  0.12500000000E+03  0.12500000000E+03  0.00000000000E+00 0. -1.
         11   -1    0    0    0    0 -0.00000000000E+00 -0.00000000000E+00 -0.12500000000E+03  0.12500000000E+03  0.00000000000E+00 0.  1.
         24    1    1    2    0    0  0.39923686680E+02 -0.67528889185E+02  0.54806317272E+02  0.12500000000E+03  0.80419002446E+02 0.  0.
        -24    1    1    2    0    0 -0.39923686680E+02  0.67528889185E+02 -0.54806317272E+02  0.12500000000E+03  0.80419002446E+02 0.  0.
</event>
<event>
 4    1  0.1586888E-001  0.1250000E+03  0.7546771E-02  0.1126479E+00
        -11   -1    0    0    0    0  0.00000000000E+00  0.00000000000E+00  0.12500000000E+03  0.12500000000E+03  0.00000000000E+00 0.  1.
         11   -1    0    0    0    0 -0.00000000000E+00 -0.00000000000E+00 -0.12500000000E+03  0.12500000000E+03  0.00000000000E+00 0. -1.
         24    1    1    2    0    0  0.10960902743E+02  0.91021568408E+02  0.27435683719E+02  0.12500000000E+03  0.80419002446E+02 0. -1.
        -24    1    1    2    0    0 -0.10960902743E+02 -0.91021568408E+02 -0.27435683719E+02  0.12500000000E+03  0.80419002446E+02 0.  1.
</event>
<event>
 4    1  0.1586888E-001  0.1250000E+03  0.7546771E-02  0.1126479E+00
        -11   -1    0    0    0    0  0.00000000000E+00  0.00000000000E+00  0.12500000000E+03  0.12500000000E+03  0.00000000000E+00 0.  1.
         11   -1    0    0    0    0 -0.00000000000E+00 -0.00000000000E+00 -0.12500000000E+03  0.12500000000E+03  0.00000000000E+00 0. -1.
         24    1    1    2    0    0  0.11252260848E+02 -0.46347824510E+02  0.82964147887E+02  0.12500000000E+03  0.80419002446E+02 0.  1.
        -24    1    1    2    0    0 -0.11252260848E+02  0.46347824510E+02 -0.82964147887E+02  0.12500000000E+03  0.80419002446E+02 0. -1.
</event>
<event>
 4    1  0.1586888E-001  0.1250000E+03  0.7546771E-02  0.1126479E+00
        -11   -1    0    0    0    0  0.00000000000E+00  0.00000000000E+00  0.12500000000E+03  0.12500000000E+03  0.00000000000E+00 0.  1.
         11   -1    0    0    0    0 -0.00000000000E+00 -0.00000000000E+00 -0.12500000000E+03  0.12500000000E+03  0.00000000000E+00 0. -1.
         24    1    1    2    0    0 -0.65830915729E+01  0.39828056285E+02  0.86765044134E+02  0.12500000000E+03  0.80419002446E+02 0.  1.
        -24    1    1    2    0    0  0.65830915729E+01 -0.39828056285E+02 -0.86765044134E+02  0.12500000000E+03  0.80419002446E+02 0. -1.
</event>
<event>
 4    1  0.1586888E-001  0.1250000E+03  0.7546771E-02  0.1126479E+00
        -11   -1    0    0    0    0  0.00000000000E+00  0.00000000000E+00  0.12500000000E+03  0.12500000000E+03  0.00000000000E+00 0.  1.
         11   -1    0    0    0    0 -0.00000000000E+00 -0.00000000000E+00 -0.12500000000E+03  0.12500000000E+03  0.00000000000E+00 0. -1.
         24    1    1    2    0    0 -0.36264179419E+01 -0.32033788938E+02  0.90102549935E+02  0.12500000000E+03  0.80419002446E+02 0.  1.
        -24    1    1    2    0    0  0.36264179419E+01  0.32033788938E+02 -0.90102549935E+02  0.12500000000E+03  0.80419002446E+02 0. -1.
</event>
<event>
 4    1  0.1586888E-001  0.1250000E+03  0.7546771E-02  0.1126479E+00
        -11   -1    0    0    0    0  0.00000000000E+00  0.00000000000E+00  0.12500000000E+03  0.12500000000E+03  0.00000000000E+00 0.  1.
         11   -1    0    0    0    0 -0.00000000000E+00 -0.00000000000E+00 -0.12500000000E+03  0.12500000000E+03  0.00000000000E+00 0. -1.
         24    1    1    2    0    0  0.32351079056E+02  0.59322866084E+02  0.67764218354E+02  0.12500000000E+03  0.80419002446E+02 0.  1.
        -24    1    1    2    0    0 -0.32351079056E+02 -0.59322866084E+02 -0.67764218354E+02  0.12500000000E+03  0.80419002446E+02 0. -1.
</event>
<event>
 4    1  0.1586888E-001  0.1250000E+03  0.7546771E-02  0.1126479E+00
        -11   -1    0    0    0    0  0.00000000000E+00  0.00000000000E+00  0.12500000000E+03  0.12500000000E+03  0.00000000000E+00 0.  1.
         11   -1    0    0    0    0 -0.00000000000E+00 -0.00000000000E+00 -0.12500000000E+03  0.12500000000E+03  0.00000000000E+00 0. -1.
         24    1    1    2    0    0 -0.31455460907E+01  0.39295674862E+02  0.87199423866E+02  0.12500000000E+03  0.80419002446E+02 0.  1.
        -24    1    1    2    0    0  0.31455460907E+01 -0.39295674862E+02 -0.87199423866E+02  0.12500000000E+03  0.80419002446E+02 0. -1.
</event>
<event>
 4    1  0.1586888E-001  0.1250000E+03  0.7546771E-02  0.1126479E+00
        -11   -1    0    0    0    0  0.00000000000E+00  0.00000000000E+00  0.12500000000E+03  0.12500000000E+03  0.00000000000E+00 0.  1.
         11   -1    0    0    0    0 -0.00000000000E+00 -0.00000000000E+00 -0.12500000000E+03  0.12500000000E+03  0.00000000000E+00 0. -1.
         24    1    1    2    0    0 -0.33358047212E+02 -0.34889171824E+02  0.82630323860E+02  0.12500000000E+03  0.80419002446E+02 0.  1.
        -24    1    1    2    0    0  0.33358047212E+02  0.34889171824E+02 -0.82630323860E+02  0.12500000000E+03  0.80419002446E+02 0. -1.
</event>
<event>
 4    1  0.1586888E-001  0.1250000E+03  0.7546771E-02  0.1126479E+00
        -11   -1    0    0    0    0  0.00000000000E+00  0.00000000000E+00  0.12500000000E+03  0.12500000000E+03  0.00000000000E+00 0.  1.
         11   -1    0    0    0    0 -0.00000000000E+00 -0.00000000000E+00 -0.12500000000E+03  0.12500000000E+03  0.00000000000E+00 0. -1.
         24    1    1    2    0    0  0.65467413157E+02 -0.64137668837E+02  0.27534728913E+02  0.12500000000E+03  0.80419002446E+02 0.  1.
        -24    1    1    2    0    0 -0.65467413157E+02  0.64137668837E+02 -0.27534728913E+02  0.12500000000E+03  0.80419002446E+02 0.  0.
</event>
<event>
 4    1  0.1586888E-001  0.1250000E+03  0.7546771E-02  0.1126479E+00
        -11   -1    0    0    0    0  0.00000000000E+00  0.00000000000E+00  0.12500000000E+03  0.12500000000E+03  0.00000000000E+00 0.  1.
         11   -1    0    0    0    0 -0.00000000000E+00 -0.00000000000E+00 -0.12500000000E+03  0.12500000000E+03  0.00000000000E+00 0. -1.
         24    1    1    2    0    0 -0.13749461252E+02  0.36999438672E+02  0.87176705024E+02  0.12500000000E+03  0.80419002446E+02 0.  1.
        -24    1    1    2    0    0  0.13749461252E+02 -0.36999438672E+02 -0.87176705024E+02  0.12500000000E+03  0.80419002446E+02 0. -1.
</event>
<event>
 4    1  0.1586888E-001  0.1250000E+03  0.7546771E-02  0.1126479E+00
        -11   -1    0    0    0    0  0.00000000000E+00  0.00000000000E+00  0.12500000000E+03  0.12500000000E+03  0.00000000000E+00 0.  1.
         11   -1    0    0    0    0 -0.00000000000E+00 -0.00000000000E+00 -0.12500000000E+03  0.12500000000E+03  0.00000000000E+00 0. -1.
         24    1    1    2    0    0 -0.54846042888E+02  0.64418122678E+02  0.44721371801E+02  0.12500000000E+03  0.80419002446E+02 0.  1.
        -24    1    1    2    0    0  0.54846042888E+02 -0.64418122678E+02 -0.44721371801E+02  0.12500000000E+03  0.80419002446E+02 0. -1.
</event>
<event>
 4    1  0.1586888E-001  0.1250000E+03  0.7546771E-02  0.1126479E+00
        -11   -1    0    0    0    0  0.00000000000E+00  0.00000000000E+00  0.12500000000E+03  0.12500000000E+03  0.00000000000E+00 0.  1.
         11   -1    0    0    0    0 -0.00000000000E+00 -0.00000000000E+00 -0.12500000000E+03  0.12500000000E+03  0.00000000000E+00 0. -1.
         24    1    1    2    0    0 -0.85419073321E+02  0.88060200874E+00  0.43134562693E+02  0.12500000000E+03  0.80419002446E+02 0.  1.
        -24    1    1    2    0    0  0.85419073321E+02 -0.88060200874E+00 -0.43134562693E+02  0.12500000000E+03  0.80419002446E+02 0. -1.
</event>
<event>
 4    1  0.1586888E-001  0.1250000E+03  0.7546771E-02  0.1126479E+00
        -11   -1    0    0    0    0  0.00000000000E+00  0.00000000000E+00  0.12500000000E+03  0.12500000000E+03  0.00000000000E+00 0.  1.
         11   -1    0    0    0    0 -0.00000000000E+00 -0.00000000000E+00 -0.12500000000E+03  0.12500000000E+03  0.00000000000E+00 0. -1.
         24    1    1    2    0    0 -0.36962377182E+02 -0.22173639805E+01  0.88241996893E+02  0.12500000000E+03  0.80419002446E+02 0.  1.
        -24    1    1    2    0    0  0.36962377182E+02  0.22173639805E+01 -0.88241996893E+02  0.12500000000E+03  0.80419002446E+02 0. -1.
</event>
<event>
 4    1  0.1586888E-001  0.1250000E+03  0.7546771E-02  0.1126479E+00
        -11   -1    0    0    0    0  0.00000000000E+00  0.00000000000E+00  0.12500000000E+03  0.12500000000E+03  0.00000000000E+00 0.  1.
         11   -1    0    0    0    0 -0.00000000000E+00 -0.00000000000E+00 -0.12500000000E+03  0.12500000000E+03  0.00000000000E+00 0. -1.
         24    1    1    2    0    0  0.36424256981E+02  0.39260457027E+02  0.79307465368E+02  0.12500000000E+03  0.80419002446E+02 0.  1.
        -24    1    1    2    0    0 -0.36424256981E+02 -0.39260457027E+02 -0.79307465368E+02  0.12500000000E+03  0.80419002446E+02 0. -1.
</event>
<event>
 4    1  0.1586888E-001  0.1250000E+03  0.7546771E-02  0.1126479E+00
        -11   -1    0    0    0    0  0.00000000000E+00  0.00000000000E+00  0.12500000000E+03  0.12500000000E+03  0.00000000000E+00 0.  1.
         11   -1    0    0    0    0 -0.00000000000E+00 -0.00000000000E+00 -0.12500000000E+03  0.12500000000E+03  0.00000000000E+00 0. -1.
         24    1    1    2    0    0 -0.24544893295E+02  0.21236934388E+02  0.90024023886E+02  0.12500000000E+03  0.80419002446E+02 0.  1.
        -24    1    1    2    0    0  0.24544893295E+02 -0.21236934388E+02 -0.90024023886E+02  0.12500000000E+03  0.80419002446E+02 0. -1.
</event>
<event>
 4    1  0.1586888E-001  0.1250000E+03  0.7546771E-02  0.1126479E+00
        -11   -1    0    0    0    0  0.00000000000E+00  0.00000000000E+00  0.12500000000E+03  0.12500000000E+03  0.00000000000E+00 0.  1.
         11   -1    0    0    0    0 -0.00000000000E+00 -0.00000000000E+00 -0.12500000000E+03  0.12500000000E+03  0.00000000000E+00 0. -1.
         24    1    1    2    0    0  0.84086448225E+02  0.45450127836E+02  0.46410289960E+01  0.12500000000E+03  0.80419002446E+02 0. -1.
        -24    1    1    2    0    0 -0.84086448225E+02 -0.45450127836E+02 -0.46410289960E+01  0.12500000000E+03  0.80419002446E+02 0.  1.
</event>
<event>
 4    1  0.1586888E-001  0.1250000E+03  0.7546771E-02  0.1126479E+00
        -11   -1    0    0    0    0  0.00000000000E+00  0.00000000000E+00  0.12500000000E+03  0.12500000000E+03  0.00000000000E+00 0.  1.
         11   -1    0    0    0    0 -0.00000000000E+00 -0.00000000000E+00 -0.12500000000E+03  0.12500000000E+03  0.00000000000E+00 0. -1.
         24    1    1    2    0    0 -0.74665400378E+02  0.19287989171E+01  0.59825928884E+02  0.12500000000E+03  0.80419002446E+02 0.  1.
        -24    1    1    2    0    0  0.74665400378E+02 -0.19287989171E+01 -0.59825928884E+02  0.12500000000E+03  0.80419002446E+02 0. -1.
</event>
<event>
 4    1  0.1586888E-001  0.1250000E+03  0.7546771E-02  0.1126479E+00
        -11   -1    0    0    0    0  0.00000000000E+00  0.00000000000E+00  0.12500000000E+03  0.12500000000E+03  0.00000000000E+00 0.  1.
         11   -1    0    0    0    0 -0.00000000000E+00 -0.00000000000E+00 -0.12500000000E+03  0.12500000000E+03  0.00000000000E+00 0. -1.
         24    1    1    2    0    0  0.26302327638E+02  0.29495084752E+02  0.87155100722E+02  0.12500000000E+03  0.80419002446E+02 0.  1.
        -24    1    1    2    0    0 -0.26302327638E+02 -0.29495084752E+02 -0.87155100722E+02  0.12500000000E+03  0.80419002446E+02 0. -1.
</event>
<event>
 4    1  0.1586888E-001  0.1250000E+03  0.7546771E-02  0.1126479E+00
        -11   -1    0    0    0    0  0.00000000000E+00  0.00000000000E+00  0.12500000000E+03  0.12500000000E+03  0.00000000000E+00 0.  1.
         11   -1    0    0    0    0 -0.00000000000E+00 -0.00000000000E+00 -0.12500000000E+03  0.12500000000E+03  0.00000000000E+00 0. -1.
         24    1    1    2    0    0 -0.25039796413E+02  0.43086905324E+02  0.81696457884E+02  0.12500000000E+03  0.80419002446E+02 0.  1.
        -24    1    1    2    0    0  0.25039796413E+02 -0.43086905324E+02 -0.81696457884E+02  0.12500000000E+03  0.80419002446E+02 0. -1.
</event>
<event>
 4    1  0.1586888E-001  0.1250000E+03  0.7546771E-02  0.1126479E+00
        -11   -1    0    0    0    0  0.00000000000E+00  0.00000000000E+00  0.12500000000E+03  0.12500000000E+03  0.00000000000E+00 0.  1.
         11   -1    0    0    0    0 -0.00000000000E+00 -0.00000000000E+00 -0.12500000000E+03  0.12500000000E+03  0.00000000000E+00 0. -1.
         24    1    1    2    0    0  0.94940577269E+01  0.67339710248E+02  0.67327634276E+02  0.12500000000E+03  0.80419002446E+02 0.  1.
        -24    1    1    2    0    0 -0.94940577269E+01 -0.67339710248E+02 -0.67327634276E+02  0.12500000000E+03  0.80419002446E+02 0. -1.
</event>
<event>
 4    1  0.1586888E-001  0.1250000E+03  0.7546771E-02  0.1126479E+00
        -11   -1    0    0    0    0  0.00000000000E+00  0.00000000000E+00  0.12500000000E+03  0.12500000000E+03  0.00000000000E+00 0.  1.
         11   -1    0    0    0    0 -0.00000000000E+00 -0.00000000000E+00 -0.12500000000E+03  0.12500000000E+03  0.00000000000E+00 0. -1.
         24    1    1    2    0    0 -0.31944631343E+02  0.24044187254E+02  0.86943669311E+02  0.12500000000E+03  0.80419002446E+02 0.  1.
        -24    1    1    2    0    0  0.31944631343E+02 -0.24044187254E+02 -0.86943669311E+02  0.12500000000E+03  0.80419002446E+02 0. -1.
</event>
<event>
 4    1  0.1586888E-001  0.1250000E+03  0.7546771E-02  0.1126479E+00
        -11   -1    0    0    0    0  0.00000000000E+00  0.00000000000E+00  0.12500000000E+03  0.12500000000E+03  0.00000000000E+00 0.  1.
         11   -1    0    0    0    0 -0.00000000000E+00 -0.00000000000E+00 -0.12500000000E+03  0.12500000000E+03  0.00000000000E+00 0. -1.
         24    1    1    2    0    0  0.53514277465E+02  0.41160716926E+02  0.67821836713E+02  0.12500000000E+03  0.80419002446E+02 0.  1.
        -24    1    1    2    0    0 -0.53514277465E+02 -0.41160716926E+02 -0.67821836713E+02  0.12500000000E+03  0.80419002446E+02 0. -1.
</event>
<event>
 4    1  0.1586888E-001  0.1250000E+03  0.7546771E-02  0.1126479E+00
        -11   -1    0    0    0    0  0.00000000000E+00  0.00000000000E+00  0.12500000000E+03  0.12500000000E+03  0.00000000000E+00 0.  1.
         11   -1    0    0    0    0 -0.00000000000E+00 -0.00000000000E+00 -0.12500000000E+03  0.12500000000E+03  0.00000000000E+00 0. -1.
         24    1    1    2    0    0 -0.18675541576E+02  0.11302875276E+02  0.93173242956E+02  0.12500000000E+03  0.80419002446E+02 0.  1.
        -24    1    1    2    0    0  0.18675541576E+02 -0.11302875276E+02 -0.93173242956E+02  0.12500000000E+03  0.80419002446E+02 0. -1.
</event>
<event>
 4    1  0.1586888E-001  0.1250000E+03  0.7546771E-02  0.1126479E+00
        -11   -1    0    0    0    0  0.00000000000E+00  0.00000000000E+00  0.12500000000E+03  0.12500000000E+03  0.00000000000E+00 0.  1.
         11   -1    0    0    0    0 -0.00000000000E+00 -0.00000000000E+00 -0.12500000000E+03  0.12500000000E+03  0.00000000000E+00 0. -1.
         24    1    1    2    0    0  0.72011403799E+01 -0.44142571319E+02  0.84601188054E+02  0.12500000000E+03  0.80419002446E+02 0.  1.
        -24    1    1    2    0    0 -0.72011403799E+01  0.44142571319E+02 -0.84601188054E+02  0.12500000000E+03  0.80419002446E+02 0. -1.
</event>
<event>
 4    1  0.1586888E-001  0.1250000E+03  0.7546771E-02  0.1126479E+00
        -11   -1    0    0    0    0  0.00000000000E+00  0.00000000000E+00  0.12500000000E+03  0.12500000000E+03  0.00000000000E+00 0.  1.
         11   -1    0    0    0    0 -0.00000000000E+00 -0.00000000000E+00 -0.12500000000E+03  0.12500000000E+03  0.00000000000E+00 0. -1.
         24    1    1    2    0    0  0.99083396939E+00  0.36318253560E+02  0.88531275559E+02  0.12500000000E+03  0.80419002446E+02 0.  1.
        -24    1    1    2    0    0 -0.99083396939E+00 -0.36318253560E+02 -0.88531275559E+02  0.12500000000E+03  0.80419002446E+02 0. -1.
</event>
<event>
 4    1  0.1586888E-001  0.1250000E+03  0.7546771E-02  0.1126479E+00
        -11   -1    0    0    0    0  0.00000000000E+00  0.00000000000E+00  0.12500000000E+03  0.12500000000E+03  0.00000000000E+00 0.  1.
         11   -1    0    0    0    0 -0.00000000000E+00 -0.00000000000E+00 -0.12500000000E+03  0.12500000000E+03  0.00000000000E+00 0. -1.
         24    1    1    2    0    0  0.30302426887E+02 -0.15485162056E+02  0.89441359149E+02  0.12500000000E+03  0.80419002446E+02 0.  1.
        -24    1    1    2    0    0 -0.30302426887E+02  0.15485162056E+02 -0.89441359149E+02  0.12500000000E+03  0.80419002446E+02 0. -1.
</event>
<event>
 4    1  0.1586888E-001  0.1250000E+03  0.7546771E-02  0.1126479E+00
        -11   -1    0    0    0    0  0.00000000000E+00  0.00000000000E+00  0.12500000000E+03  0.12500000000E+03  0.00000000000E+00 0.  1.
         11   -1    0    0    0    0 -0.00000000000E+00 -0.00000000000E+00 -0.12500000000E+03  0.12500000000E+03  0.00000000000E+00 0. -1.
         24    1    1    2    0    0 -0.50973983671E+02  0.26524113144E+02  0.76523907743E+02  0.12500000000E+03  0.80419002446E+02 0.  1.
        -24    1    1    2    0    0  0.50973983671E+02 -0.26524113144E+02 -0.76523907743E+02  0.12500000000E+03  0.80419002446E+02 0.  0.
</event>
<event>
 4    1  0.1586888E-001  0.1250000E+03  0.7546771E-02  0.1126479E+00
        -11   -1    0    0    0    0  0.00000000000E+00  0.00000000000E+00  0.12500000000E+03  0.12500000000E+03  0.00000000000E+00 0.  1.
         11   -1    0    0    0    0 -0.00000000000E+00 -0.00000000000E+00 -0.12500000000E+03  0.12500000000E+03  0.00000000000E+00 0. -1.
         24    1    1    2    0    0  0.14899659379E+02 -0.84011705680E+02  0.43333791720E+02  0.12500000000E+03  0.80419002446E+02 0.  1.
        -24    1    1    2    0    0 -0.14899659379E+02  0.84011705680E+02 -0.43333791720E+02  0.12500000000E+03  0.80419002446E+02 0. -1.
</event>
<event>
 4    1  0.1586888E-001  0.1250000E+03  0.7546771E-02  0.1126479E+00
        -11   -1    0    0    0    0  0.00000000000E+00  0.00000000000E+00  0.12500000000E+03  0.12500000000E+03  0.00000000000E+00 0.  1.
         11   -1    0    0    0    0 -0.00000000000E+00 -0.00000000000E+00 -0.12500000000E+03  0.12500000000E+03  0.00000000000E+00 0. -1.
         24    1    1    2    0    0 -0.22640192704E+02  0.89269831491E+02 -0.26001978877E+02  0.12500000000E+03  0.80419002446E+02 0.  0.
        -24    1    1    2    0    0  0.22640192704E+02 -0.89269831491E+02  0.26001978877E+02  0.12500000000E+03  0.80419002446E+02 0.  0.
</event>
<event>
 4    1  0.1586888E-001  0.1250000E+03  0.7546771E-02  0.1126479E+00
        -11   -1    0    0    0    0  0.00000000000E+00  0.00000000000E+00  0.12500000000E+03  0.12500000000E+03  0.00000000000E+00 0.  1.
         11   -1    0    0    0    0 -0.00000000000E+00 -0.00000000000E+00 -0.12500000000E+03  0.12500000000E+03  0.00000000000E+00 0. -1.
         24    1    1    2    0    0 -0.34097522480E+02  0.12024126536E+01  0.89407478491E+02  0.12500000000E+03  0.80419002446E+02 0.  1.
        -24    1    1    2    0    0  0.34097522480E+02 -0.12024126536E+01 -0.89407478491E+02  0.12500000000E+03  0.80419002446E+02 0. -1.
</event>
<event>
 4    1  0.1586888E-001  0.1250000E+03  0.7546771E-02  0.1126479E+00
        -11   -1    0    0    0    0  0.00000000000E+00  0.00000000000E+00  0.12500000000E+03  0.12500000000E+03  0.00000000000E+00 0.  1.
         11   -1    0    0    0    0 -0.00000000000E+00 -0.00000000000E+00 -0.12500000000E+03  0.12500000000E+03  0.00000000000E+00 0. -1.
         24    1    1    2    0    0  0.47500350505E+02 -0.48794292302E+02  0.67235539607E+02  0.12500000000E+03  0.80419002446E+02 0.  1.
        -24    1    1    2    0    0 -0.47500350505E+02  0.48794292302E+02 -0.67235539607E+02  0.12500000000E+03  0.80419002446E+02 0. -1.
</event>
<event>
 4    1  0.1586888E-001  0.1250000E+03  0.7546771E-02  0.1126479E+00
        -11   -1    0    0    0    0  0.00000000000E+00  0.00000000000E+00  0.12500000000E+03  0.12500000000E+03  0.00000000000E+00 0.  1.
         11   -1    0    0    0    0 -0.00000000000E+00 -0.00000000000E+00 -0.12500000000E+03  0.12500000000E+03  0.00000000000E+00 0. -1.
         24    1    1    2    0    0 -0.88576650876E+01  0.18553303093E+02  0.93461760946E+02  0.12500000000E+03  0.80419002446E+02 0.  1.
        -24    1    1    2    0    0  0.88576650876E+01 -0.18553303093E+02 -0.93461760946E+02  0.12500000000E+03  0.80419002446E+02 0.  0.
</event>
<event>
 4    1  0.1586888E-001  0.1250000E+03  0.7546771E-02  0.1126479E+00
        -11   -1    0    0    0    0  0.00000000000E+00  0.00000000000E+00  0.12500000000E+03  0.12500000000E+03  0.00000000000E+00 0.  1.
         11   -1    0    0    0    0 -0.00000000000E+00 -0.00000000000E+00 -0.12500000000E+03  0.12500000000E+03  0.00000000000E+00 0. -1.
         24    1    1    2    0    0 -0.34535799456E+02 -0.11055783113E+02  0.88559766606E+02  0.12500000000E+03  0.80419002446E+02 0.  1.
        -24    1    1    2    0    0  0.34535799456E+02  0.11055783113E+02 -0.88559766606E+02  0.12500000000E+03  0.80419002446E+02 0. -1.
</event>
<event>
 4    1  0.1586888E-001  0.1250000E+03  0.7546771E-02  0.1126479E+00
        -11   -1    0    0    0    0  0.00000000000E+00  0.00000000000E+00  0.12500000000E+03  0.12500000000E+03  0.00000000000E+00 0.  1.
         11   -1    0    0    0    0 -0.00000000000E+00 -0.00000000000E+00 -0.12500000000E+03  0.12500000000E+03  0.00000000000E+00 0. -1.
         24    1    1    2    0    0 -0.18298066557E+02  0.85227777334E+02  0.39486589833E+02  0.12500000000E+03  0.80419002446E+02 0. -1.
        -24    1    1    2    0    0  0.18298066557E+02 -0.85227777334E+02 -0.39486589833E+02  0.12500000000E+03  0.80419002446E+02 0.  1.
</event>
<event>
 4    1  0.1586888E-001  0.1250000E+03  0.7546771E-02  0.1126479E+00
        -11   -1    0    0    0    0  0.00000000000E+00  0.00000000000E+00  0.12500000000E+03  0.12500000000E+03  0.00000000000E+00 0.  1.
         11   -1    0    0    0    0 -0.00000000000E+00 -0.00000000000E+00 -0.12500000000E+03  0.12500000000E+03  0.00000000000E+00 0. -1.
         24    1    1    2    0    0 -0.18768839138E+02  0.22921404436E+02  0.90995186366E+02  0.12500000000E+03  0.80419002446E+02 0.  1.
        -24    1    1    2    0    0  0.18768839138E+02 -0.22921404436E+02 -0.90995186366E+02  0.12500000000E+03  0.80419002446E+02 0. -1.
</event>
<event>
 4    1  0.1586888E-001  0.1250000E+03  0.7546771E-02  0.1126479E+00
        -11   -1    0    0    0    0  0.00000000000E+00  0.00000000000E+00  0.12500000000E+03  0.12500000000E+03  0.00000000000E+00 0.  1.
         11   -1    0    0    0    0 -0.00000000000E+00 -0.00000000000E+00 -0.12500000000E+03  0.12500000000E+03  0.00000000000E+00 0. -1.
         24    1    1    2    0    0 -0.59051370437E+02  0.74445673061E+02 -0.11338494503E+02  0.12500000000E+03  0.80419002446E+02 0.  1.
        -24    1    1    2    0    0  0.59051370437E+02 -0.74445673061E+02  0.11338494503E+02  0.12500000000E+03  0.80419002446E+02 0. -1.
</event>
<event>
 4    1  0.1586888E-001  0.1250000E+03  0.7546771E-02  0.1126479E+00
        -11   -1    0    0    0    0  0.00000000000E+00  0.00000000000E+00  0.12500000000E+03  0.12500000000E+03  0.00000000000E+00 0.  1.
         11   -1    0    0    0    0 -0.00000000000E+00 -0.00000000000E+00 -0.12500000000E+03  0.12500000000E+03  0.00000000000E+00 0. -1.
         24    1    1    2    0    0 -0.11744456177E+01 -0.18800381499E+02  0.93824039449E+02  0.12500000000E+03  0.80419002446E+02 0.  1.
        -24    1    1    2    0    0  0.11744456177E+01  0.18800381499E+02 -0.93824039449E+02  0.12500000000E+03  0.80419002446E+02 0. -1.
</event>
<event>
 4    1  0.1586888E-001  0.1250000E+03  0.7546771E-02  0.1126479E+00
        -11   -1    0    0    0    0  0.00000000000E+00  0.00000000000E+00  0.12500000000E+03  0.12500000000E+03  0.00000000000E+00 0.  1.
         11   -1    0    0    0    0 -0.00000000000E+00 -0.00000000000E+00 -0.12500000000E+03  0.12500000000E+03  0.00000000000E+00 0. -1.
         24    1    1    2    0    0 -0.36176466285E+02  0.19702214188E+02  0.86376328290E+02  0.12500000000E+03  0.80419002446E+02 0.  1.
        -24    1    1    2    0    0  0.36176466285E+02 -0.19702214188E+02 -0.86376328290E+02  0.12500000000E+03  0.80419002446E+02 0.  1.
</event>
<event>
 4    1  0.1586888E-001  0.1250000E+03  0.7546771E-02  0.1126479E+00
        -11   -1    0    0    0    0  0.00000000000E+00  0.00000000000E+00  0.12500000000E+03  0.12500000000E+03  0.00000000000E+00 0.  1.
         11   -1    0    0    0    0 -0.00000000000E+00 -0.00000000000E+00 -0.12500000000E+03  0.12500000000E+03  0.00000000000E+00 0. -1.
         24    1    1    2    0    0 -0.89301374139E+02 -0.15909646332E+02  0.30494782768E+02  0.12500000000E+03  0.80419002446E+02 0.  1.
        -24    1    1    2    0    0  0.89301374139E+02  0.15909646332E+02 -0.30494782768E+02  0.12500000000E+03  0.80419002446E+02 0. -1.
</event>
<event>
 4    1  0.1586888E-001  0.1250000E+03  0.7546771E-02  0.1126479E+00
        -11   -1    0    0    0    0  0.00000000000E+00  0.00000000000E+00  0.12500000000E+03  0.12500000000E+03  0.00000000000E+00 0.  1.
         11   -1    0    0    0    0 -0.00000000000E+00 -0.00000000000E+00 -0.12500000000E+03  0.12500000000E+03  0.00000000000E+00 0. -1.
         24    1    1    2    0    0 -0.78631603711E+02  0.21432845263E+02  0.50154641734E+02  0.12500000000E+03  0.80419002446E+02 0.  0.
        -24    1    1    2    0    0  0.78631603711E+02 -0.21432845263E+02 -0.50154641734E+02  0.12500000000E+03  0.80419002446E+02 0. -1.
</event>
<event>
 4    1  0.1586888E-001  0.1250000E+03  0.7546771E-02  0.1126479E+00
        -11   -1    0    0    0    0  0.00000000000E+00  0.00000000000E+00  0.12500000000E+03  0.12500000000E+03  0.00000000000E+00 0.  1.
         11   -1    0    0    0    0 -0.00000000000E+00 -0.00000000000E+00 -0.12500000000E+03  0.12500000000E+03  0.00000000000E+00 0. -1.
         24    1    1    2    0    0  0.26747315431E+02 -0.19346713502E+02  0.89822435057E+02  0.12500000000E+03  0.80419002446E+02 0.  1.
        -24    1    1    2    0    0 -0.26747315431E+02  0.19346713502E+02 -0.89822435057E+02  0.12500000000E+03  0.80419002446E+02 0. -1.
</event>
<event>
 4    1  0.1586888E-001  0.1250000E+03  0.7546771E-02  0.1126479E+00
        -11   -1    0    0    0    0  0.00000000000E+00  0.00000000000E+00  0.12500000000E+03  0.12500000000E+03  0.00000000000E+00 0.  1.
         11   -1    0    0    0    0 -0.00000000000E+00 -0.00000000000E+00 -0.12500000000E+03  0.12500000000E+03  0.00000000000E+00 0. -1.
         24    1    1    2    0    0  0.10977663765E+02 -0.94784083972E+02  0.72974221068E+01  0.12500000000E+03  0.80419002446E+02 0.  1.
        -24    1    1    2    0    0 -0.10977663765E+02  0.94784083972E+02 -0.72974221068E+01  0.12500000000E+03  0.80419002446E+02 0. -1.
</event>
<event>
 4    1  0.1586888E-001  0.1250000E+03  0.7546771E-02  0.1126479E+00
        -11   -1    0    0    0    0  0.00000000000E+00  0.00000000000E+00  0.12500000000E+03  0.12500000000E+03  0.00000000000E+00 0.  1.
         11   -1    0    0    0    0 -0.00000000000E+00 -0.00000000000E+00 -0.12500000000E+03  0.12500000000E+03  0.00000000000E+00 0. -1.
         24    1    1    2    0    0 -0.11720597369E+02  0.64690970060E+02  0.69537687879E+02  0.12500000000E+03  0.80419002446E+02 0.  1.
        -24    1    1    2    0    0  0.11720597369E+02 -0.64690970060E+02 -0.69537687879E+02  0.12500000000E+03  0.80419002446E+02 0. -1.
</event>
<event>
 4    1  0.1586888E-001  0.1250000E+03  0.7546771E-02  0.1126479E+00
        -11   -1    0    0    0    0  0.00000000000E+00  0.00000000000E+00  0.12500000000E+03  0.12500000000E+03  0.00000000000E+00 0.  1.
         11   -1    0    0    0    0 -0.00000000000E+00 -0.00000000000E+00 -0.12500000000E+03  0.12500000000E+03  0.00000000000E+00 0. -1.
         24    1    1    2    0    0 -0.87762958558E+01 -0.92999480265E+01  0.94838133909E+02  0.12500000000E+03  0.80419002446E+02 0.  1.
        -24    1    1    2    0    0  0.87762958558E+01  0.92999480265E+01 -0.94838133909E+02  0.12500000000E+03  0.80419002446E+02 0.  0.
</event>
<event>
 4    1  0.1586888E-001  0.1250000E+03  0.7546771E-02  0.1126479E+00
        -11   -1    0    0    0    0  0.00000000000E+00  0.00000000000E+00  0.12500000000E+03  0.12500000000E+03  0.00000000000E+00 0.  1.
         11   -1    0    0    0    0 -0.00000000000E+00 -0.00000000000E+00 -0.12500000000E+03  0.12500000000E+03  0.00000000000E+00 0. -1.
         24    1    1    2    0    0  0.93344709842E+02 -0.15946260604E+02 -0.13793692865E+02  0.12500000000E+03  0.80419002446E+02 0.  1.
        -24    1    1    2    0    0 -0.93344709842E+02  0.15946260604E+02  0.13793692865E+02  0.12500000000E+03  0.80419002446E+02 0.  0.
</event>
<event>
 4    1  0.1586888E-001  0.1250000E+03  0.7546771E-02  0.1126479E+00
        -11   -1    0    0    0    0  0.00000000000E+00  0.00000000000E+00  0.12500000000E+03  0.12500000000E+03  0.00000000000E+00 0.  1.
         11   -1    0    0    0    0 -0.00000000000E+00 -0.00000000000E+00 -0.12500000000E+03  0.12500000000E+03  0.00000000000E+00 0. -1.
         24    1    1    2    0    0 -0.31915469206E+02  0.53146041588E+02  0.72901887044E+02  0.12500000000E+03  0.80419002446E+02 0.  1.
        -24    1    1    2    0    0  0.31915469206E+02 -0.53146041588E+02 -0.72901887044E+02  0.12500000000E+03  0.80419002446E+02 0. -1.
</event>
<event>
 4    1  0.1586888E-001  0.1250000E+03  0.7546771E-02  0.1126479E+00
        -11   -1    0    0    0    0  0.00000000000E+00  0.00000000000E+00  0.12500000000E+03  0.12500000000E+03  0.00000000000E+00 0.  1.
         11   -1    0    0    0    0 -0.00000000000E+00 -0.00000000000E+00 -0.12500000000E+03  0.12500000000E+03  0.00000000000E+00 0. -1.
         24    1    1    2    0    0 -0.20685988191E+02  0.39688712249E+02  0.84585341864E+02  0.12500000000E+03  0.80419002446E+02 0.  1.
        -24    1    1    2    0    0  0.20685988191E+02 -0.39688712249E+02 -0.84585341864E+02  0.12500000000E+03  0.80419002446E+02 0. -1.
</event>
<event>
 4    1  0.1586888E-001  0.1250000E+03  0.7546771E-02  0.1126479E+00
        -11   -1    0    0    0    0  0.00000000000E+00  0.00000000000E+00  0.12500000000E+03  0.12500000000E+03  0.00000000000E+00 0.  1.
         11   -1    0    0    0    0 -0.00000000000E+00 -0.00000000000E+00 -0.12500000000E+03  0.12500000000E+03  0.00000000000E+00 0. -1.
         24    1    1    2    0    0 -0.82594316051E+01  0.29633562273E+02  0.90616873827E+02  0.12500000000E+03  0.80419002446E+02 0. -1.
        -24    1    1    2    0    0  0.82594316051E+01 -0.29633562273E+02 -0.90616873827E+02  0.12500000000E+03  0.80419002446E+02 0. -1.
</event>
<event>
 4    1  0.1586888E-001  0.1250000E+03  0.7546771E-02  0.1126479E+00
        -11   -1    0    0    0    0  0.00000000000E+00  0.00000000000E+00  0.12500000000E+03  0.12500000000E+03  0.00000000000E+00 0.  1.
         11   -1    0    0    0    0 -0.00000000000E+00 -0.00000000000E+00 -0.12500000000E+03  0.12500000000E+03  0.00000000000E+00 0. -1.
         24    1    1    2    0    0 -0.76788800312E+01  0.32006753114E+02  0.89857590676E+02  0.12500000000E+03  0.80419002446E+02 0.  1.
        -24    1    1    2    0    0  0.76788800312E+01 -0.32006753114E+02 -0.89857590676E+02  0.12500000000E+03  0.80419002446E+02 0. -1.
</event>
<event>
 4    1  0.1586888E-001  0.1250000E+03  0.7546771E-02  0.1126479E+00
        -11   -1    0    0    0    0  0.00000000000E+00  0.00000000000E+00  0.12500000000E+03  0.12500000000E+03  0.00000000000E+00 0.  1.
         11   -1    0    0    0    0 -0.00000000000E+00 -0.00000000000E+00 -0.12500000000E+03  0.12500000000E+03  0.00000000000E+00 0. -1.
         24    1    1    2    0    0 -0.14754227294E+02 -0.84998108632E+02 -0.41417609198E+02  0.12500000000E+03  0.80419002446E+02 0.  0.
        -24    1    1    2    0    0  0.14754227294E+02  0.84998108632E+02  0.41417609198E+02  0.12500000000E+03  0.80419002446E+02 0. -1.
</event>
<event>
 4    1  0.1586888E-001  0.1250000E+03  0.7546771E-02  0.1126479E+00
        -11   -1    0    0    0    0  0.00000000000E+00  0.00000000000E+00  0.12500000000E+03  0.12500000000E+03  0.00000000000E+00 0.  1.
         11   -1    0    0    0    0 -0.00000000000E+00 -0.00000000000E+00 -0.12500000000E+03  0.12500000000E+03  0.00000000000E+00 0. -1.
         24    1    1    2    0    0 -0.24017709415E+02 -0.76436870941E+02  0.52329135678E+02  0.12500000000E+03  0.80419002446E+02 0.  0.
        -24    1    1    2    0    0  0.24017709415E+02  0.76436870941E+02 -0.52329135678E+02  0.12500000000E+03  0.80419002446E+02 0. -1.
</event>
<event>
 4    1  0.1586888E-001  0.1250000E+03  0.7546771E-02  0.1126479E+00
        -11   -1    0    0    0    0  0.00000000000E+00  0.00000000000E+00  0.12500000000E+03  0.12500000000E+03  0.00000000000E+00 0.  1.
         11   -1    0    0    0    0 -0.00000000000E+00 -0.00000000000E+00 -0.12500000000E+03  0.12500000000E+03  0.00000000000E+00 0. -1.
         24    1    1    2    0    0 -0.87064962546E+01 -0.11062675083E+02  0.94655154052E+02  0.12500000000E+03  0.80419002446E+02 0.  1.
        -24    1    1    2    0    0  0.87064962546E+01  0.11062675083E+02 -0.94655154052E+02  0.12500000000E+03  0.80419002446E+02 0. -1.
</event>
<event>
 4    1  0.1586888E-001  0.1250000E+03  0.7546771E-02  0.1126479E+00
        -11   -1    0    0    0    0  0.00000000000E+00  0.00000000000E+00  0.12500000000E+03  0.12500000000E+03  0.00000000000E+00 0.  1.
         11   -1    0    0    0    0 -0.00000000000E+00 -0.00000000000E+00 -0.12500000000E+03  0.12500000000E+03  0.00000000000E+00 0. -1.
         24    1    1    2    0    0  0.13784100905E+02  0.57844767631E+01  0.94521544827E+02  0.12500000000E+03  0.80419002446E+02 0.  1.
        -24    1    1    2    0    0 -0.13784100905E+02 -0.57844767631E+01 -0.94521544827E+02  0.12500000000E+03  0.80419002446E+02 0. -1.
</event>
<event>
 4    1  0.1586888E-001  0.1250000E+03  0.7546771E-02  0.1126479E+00
        -11   -1    0    0    0    0  0.00000000000E+00  0.00000000000E+00  0.12500000000E+03  0.12500000000E+03  0.00000000000E+00 0.  1.
         11   -1    0    0    0    0 -0.00000000000E+00 -0.00000000000E+00 -0.12500000000E+03  0.12500000000E+03  0.00000000000E+00 0. -1.
         24    1    1    2    0    0  0.15528014767E+02  0.90338454022E+02  0.27488698184E+02  0.12500000000E+03  0.80419002446E+02 0.  0.
        -24    1    1    2    0    0 -0.15528014767E+02 -0.90338454022E+02 -0.27488698184E+02  0.12500000000E+03  0.80419002446E+02 0. -1.
</event>
<event>
 4    1  0.1586888E-001  0.1250000E+03  0.7546771E-02  0.1126479E+00
        -11   -1    0    0    0    0  0.00000000000E+00  0.00000000000E+00  0.12500000000E+03  0.12500000000E+03  0.00000000000E+00 0.  1.
         11   -1    0    0    0    0 -0.00000000000E+00 -0.00000000000E+00 -0.12500000000E+03  0.12500000000E+03  0.00000000000E+00 0. -1.
         24    1    1    2    0    0  0.87406258367E+02 -0.14247499893E+02  0.36262084753E+02  0.12500000000E+03  0.80419002446E+02 0.  1.
        -24    1    1    2    0    0 -0.87406258367E+02  0.14247499893E+02 -0.36262084753E+02  0.12500000000E+03  0.80419002446E+02 0.  0.
</event>
<event>
 4    1  0.1586888E-001  0.1250000E+03  0.7546771E-02  0.1126479E+00
        -11   -1    0    0    0    0  0.00000000000E+00  0.00000000000E+00  0.12500000000E+03  0.12500000000E+03  0.00000000000E+00 0.  1.
         11   -1    0    0    0    0 -0.00000000000E+00 -0.00000000000E+00 -0.12500000000E+03  0.12500000000E+03  0.00000000000E+00 0. -1.
         24    1    1    2    0    0  0.39439095128E+02 -0.22414613608E+02  0.84261064068E+02  0.12500000000E+03  0.80419002446E+02 0.  1.
        -24    1    1    2    0    0 -0.39439095128E+02  0.22414613608E+02 -0.84261064068E+02  0.12500000000E+03  0.80419002446E+02 0. -1.
</event>
<event>
 4    1  0.1586888E-001  0.1250000E+03  0.7546771E-02  0.1126479E+00
        -11   -1    0    0    0    0  0.00000000000E+00  0.00000000000E+00  0.12500000000E+03  0.12500000000E+03  0.00000000000E+00 0.  1.
         11   -1    0    0    0    0 -0.00000000000E+00 -0.00000000000E+00 -0.12500000000E+03  0.12500000000E+03  0.00000000000E+00 0. -1.
         24    1    1    2    0    0 -0.60400889353E+02  0.62363896420E+02  0.40252466191E+02  0.12500000000E+03  0.80419002446E+02 0.  1.
        -24    1    1    2    0    0  0.60400889353E+02 -0.62363896420E+02 -0.40252466191E+02  0.12500000000E+03  0.80419002446E+02 0.  0.
</event>
<event>
 4    1  0.1586888E-001  0.1250000E+03  0.7546771E-02  0.1126479E+00
        -11   -1    0    0    0    0  0.00000000000E+00  0.00000000000E+00  0.12500000000E+03  0.12500000000E+03  0.00000000000E+00 0.  1.
         11   -1    0    0    0    0 -0.00000000000E+00 -0.00000000000E+00 -0.12500000000E+03  0.12500000000E+03  0.00000000000E+00 0. -1.
         24    1    1    2    0    0  0.28938278290E+02 -0.42314645446E+02  0.80807368946E+02  0.12500000000E+03  0.80419002446E+02 0.  1.
        -24    1    1    2    0    0 -0.28938278290E+02  0.42314645446E+02 -0.80807368946E+02  0.12500000000E+03  0.80419002446E+02 0. -1.
</event>
<event>
 4    1  0.1586888E-001  0.1250000E+03  0.7546771E-02  0.1126479E+00
        -11   -1    0    0    0    0  0.00000000000E+00  0.00000000000E+00  0.12500000000E+03  0.12500000000E+03  0.00000000000E+00 0.  1.
         11   -1    0    0    0    0 -0.00000000000E+00 -0.00000000000E+00 -0.12500000000E+03  0.12500000000E+03  0.00000000000E+00 0. -1.
         24    1    1    2    0    0  0.12927578862E+02  0.52764479768E+01  0.94672175676E+02  0.12500000000E+03  0.80419002446E+02 0.  1.
        -24    1    1    2    0    0 -0.12927578862E+02 -0.52764479768E+01 -0.94672175676E+02  0.12500000000E+03  0.80419002446E+02 0. -1.
</event>
<event>
 4    1  0.1586888E-001  0.1250000E+03  0.7546771E-02  0.1126479E+00
        -11   -1    0    0    0    0  0.00000000000E+00  0.00000000000E+00  0.12500000000E+03  0.12500000000E+03  0.00000000000E+00 0.  1.
         11   -1    0    0    0    0 -0.00000000000E+00 -0.00000000000E+00 -0.12500000000E+03  0.12500000000E+03  0.00000000000E+00 0. -1.
         24    1    1    2    0    0  0.48000239265E+01  0.81722137486E+01  0.95225830206E+02  0.12500000000E+03  0.80419002446E+02 0.  0.
        -24    1    1    2    0    0 -0.48000239265E+01 -0.81722137486E+01 -0.95225830206E+02  0.12500000000E+03  0.80419002446E+02 0. -1.
</event>
<event>
 4    1  0.1586888E-001  0.1250000E+03  0.7546771E-02  0.1126479E+00
        -11   -1    0    0    0    0  0.00000000000E+00  0.00000000000E+00  0.12500000000E+03  0.12500000000E+03  0.00000000000E+00 0.  1.
         11   -1    0    0    0    0 -0.00000000000E+00 -0.00000000000E+00 -0.12500000000E+03  0.12500000000E+03  0.00000000000E+00 0. -1.
         24    1    1    2    0    0 -0.31306002178E+01 -0.70059652031E+01  0.95388153559E+02  0.12500000000E+03  0.80419002446E+02 0.  1.
        -24    1    1    2    0    0  0.31306002178E+01  0.70059652031E+01 -0.95388153559E+02  0.12500000000E+03  0.80419002446E+02 0.  0.
</event>
<event>
 4    1  0.1586888E-001  0.1250000E+03  0.7546771E-02  0.1126479E+00
        -11   -1    0    0    0    0  0.00000000000E+00  0.00000000000E+00  0.12500000000E+03  0.12500000000E+03  0.00000000000E+00 0.  1.
         11   -1    0    0    0    0 -0.00000000000E+00 -0.00000000000E+00 -0.12500000000E+03  0.12500000000E+03  0.00000000000E+00 0. -1.
         24    1    1    2    0    0  0.37170093638E+02  0.21088069574E+02  0.85623954045E+02  0.12500000000E+03  0.80419002446E+02 0.  1.
        -24    1    1    2    0    0 -0.37170093638E+02 -0.21088069574E+02 -0.85623954045E+02  0.12500000000E+03  0.80419002446E+02 0. -1.
</event>
<event>
 4    1  0.1586888E-001  0.1250000E+03  0.7546771E-02  0.1126479E+00
        -11   -1    0    0    0    0  0.00000000000E+00  0.00000000000E+00  0.12500000000E+03  0.12500000000E+03  0.00000000000E+00 0.  1.
         11   -1    0    0    0    0 -0.00000000000E+00 -0.00000000000E+00 -0.12500000000E+03  0.12500000000E+03  0.00000000000E+00 0. -1.
         24    1    1    2    0    0  0.23563376703E+02 -0.92724951869E+02  0.21528178907E+01  0.12500000000E+03  0.80419002446E+02 0.  1.
        -24    1    1    2    0    0 -0.23563376703E+02  0.92724951869E+02 -0.21528178907E+01  0.12500000000E+03  0.80419002446E+02 0.  0.
</event>
<event>
 4    1  0.1586888E-001  0.1250000E+03  0.7546771E-02  0.1126479E+00
        -11   -1    0    0    0    0  0.00000000000E+00  0.00000000000E+00  0.12500000000E+03  0.12500000000E+03  0.00000000000E+00 0.  1.
         11   -1    0    0    0    0 -0.00000000000E+00 -0.00000000000E+00 -0.12500000000E+03  0.12500000000E+03  0.00000000000E+00 0. -1.
         24    1    1    2    0    0  0.49872486985E+01  0.17870776087E+02  0.93880491893E+02  0.12500000000E+03  0.80419002446E+02 0.  0.
        -24    1    1    2    0    0 -0.49872486985E+01 -0.17870776087E+02 -0.93880491893E+02  0.12500000000E+03  0.80419002446E+02 0.  0.
</event>
<event>
 4    1  0.1586888E-001  0.1250000E+03  0.7546771E-02  0.1126479E+00
        -11   -1    0    0    0    0  0.00000000000E+00  0.00000000000E+00  0.12500000000E+03  0.12500000000E+03  0.00000000000E+00 0.  1.
         11   -1    0    0    0    0 -0.00000000000E+00 -0.00000000000E+00 -0.12500000000E+03  0.12500000000E+03  0.00000000000E+00 0. -1.
         24    1    1    2    0    0 -0.19686456742E+02  0.23080132887E+01  0.93621047533E+02  0.12500000000E+03  0.80419002446E+02 0.  0.
        -24    1    1    2    0    0  0.19686456742E+02 -0.23080132887E+01 -0.93621047533E+02  0.12500000000E+03  0.80419002446E+02 0. -1.
</event>
<event>
 4    1  0.1586888E-001  0.1250000E+03  0.7546771E-02  0.1126479E+00
        -11   -1    0    0    0    0  0.00000000000E+00  0.00000000000E+00  0.12500000000E+03  0.12500000000E+03  0.00000000000E+00 0.  1.
         11   -1    0    0    0    0 -0.00000000000E+00 -0.00000000000E+00 -0.12500000000E+03  0.12500000000E+03  0.00000000000E+00 0. -1.
         24    1    1    2    0    0  0.26477834931E+02  0.44931963175E+02  0.80236070369E+02  0.12500000000E+03  0.80419002446E+02 0.  1.
        -24    1    1    2    0    0 -0.26477834931E+02 -0.44931963175E+02 -0.80236070369E+02  0.12500000000E+03  0.80419002446E+02 0. -1.
</event>
<event>
 4    1  0.1586888E-001  0.1250000E+03  0.7546771E-02  0.1126479E+00
        -11   -1    0    0    0    0  0.00000000000E+00  0.00000000000E+00  0.12500000000E+03  0.12500000000E+03  0.00000000000E+00 0.  1.
         11   -1    0    0    0    0 -0.00000000000E+00 -0.00000000000E+00 -0.12500000000E+03  0.12500000000E+03  0.00000000000E+00 0. -1.
         24    1    1    2    0    0 -0.40641825873E+02  0.66183665947E+02 -0.55908392905E+02  0.12500000000E+03  0.80419002446E+02 0.  0.
        -24    1    1    2    0    0  0.40641825873E+02 -0.66183665947E+02  0.55908392905E+02  0.12500000000E+03  0.80419002446E+02 0. -1.
</event>
<event>
 4    1  0.1586888E-001  0.1250000E+03  0.7546771E-02  0.1126479E+00
        -11   -1    0    0    0    0  0.00000000000E+00  0.00000000000E+00  0.12500000000E+03  0.12500000000E+03  0.00000000000E+00 0.  1.
         11   -1    0    0    0    0 -0.00000000000E+00 -0.00000000000E+00 -0.12500000000E+03  0.12500000000E+03  0.00000000000E+00 0. -1.
         24    1    1    2    0    0  0.24209225482E+02 -0.13746965191E+02  0.91557186475E+02  0.12500000000E+03  0.80419002446E+02 0.  0.
        -24    1    1    2    0    0 -0.24209225482E+02  0.13746965191E+02 -0.91557186475E+02  0.12500000000E+03  0.80419002446E+02 0. -1.
</event>
<event>
 4    1  0.1586888E-001  0.1250000E+03  0.7546771E-02  0.1126479E+00
        -11   -1    0    0    0    0  0.00000000000E+00  0.00000000000E+00  0.12500000000E+03  0.12500000000E+03  0.00000000000E+00 0.  1.
         11   -1    0    0    0    0 -0.00000000000E+00 -0.00000000000E+00 -0.12500000000E+03  0.12500000000E+03  0.00000000000E+00 0. -1.
         24    1    1    2    0    0  0.29110001341E+02 -0.13398556853E+02  0.90171339914E+02  0.12500000000E+03  0.80419002446E+02 0.  1.
        -24    1    1    2    0    0 -0.29110001341E+02  0.13398556853E+02 -0.90171339914E+02  0.12500000000E+03  0.80419002446E+02 0. -1.
</event>
<event>
 4    1  0.1586888E-001  0.1250000E+03  0.7546771E-02  0.1126479E+00
        -11   -1    0    0    0    0  0.00000000000E+00  0.00000000000E+00  0.12500000000E+03  0.12500000000E+03  0.00000000000E+00 0.  1.
         11   -1    0    0    0    0 -0.00000000000E+00 -0.00000000000E+00 -0.12500000000E+03  0.12500000000E+03  0.00000000000E+00 0. -1.
         24    1    1    2    0    0 -0.19073730014E+02 -0.70369012135E+02  0.61985312777E+02  0.12500000000E+03  0.80419002446E+02 0.  1.
        -24    1    1    2    0    0  0.19073730014E+02  0.70369012135E+02 -0.61985312777E+02  0.12500000000E+03  0.80419002446E+02 0. -1.
</event>
<event>
 4    1  0.1586888E-001  0.1250000E+03  0.7546771E-02  0.1126479E+00
        -11   -1    0    0    0    0  0.00000000000E+00  0.00000000000E+00  0.12500000000E+03  0.12500000000E+03  0.00000000000E+00 0.  1.
         11   -1    0    0    0    0 -0.00000000000E+00 -0.00000000000E+00 -0.12500000000E+03  0.12500000000E+03  0.00000000000E+00 0. -1.
         24    1    1    2    0    0 -0.67534412400E+02  0.50037556189E+02  0.45750739426E+02  0.12500000000E+03  0.80419002446E+02 0.  1.
        -24    1    1    2    0    0  0.67534412400E+02 -0.50037556189E+02 -0.45750739426E+02  0.12500000000E+03  0.80419002446E+02 0. -1.
</event>
<event>
 4    1  0.1586888E-001  0.1250000E+03  0.7546771E-02  0.1126479E+00
        -11   -1    0    0    0    0  0.00000000000E+00  0.00000000000E+00  0.12500000000E+03  0.12500000000E+03  0.00000000000E+00 0.  1.
         11   -1    0    0    0    0 -0.00000000000E+00 -0.00000000000E+00 -0.12500000000E+03  0.12500000000E+03  0.00000000000E+00 0. -1.
         24    1    1    2    0    0 -0.31814306618E+02 -0.31864011718E+02  0.84441214447E+02  0.12500000000E+03  0.80419002446E+02 0.  1.
        -24    1    1    2    0    0  0.31814306618E+02  0.31864011718E+02 -0.84441214447E+02  0.12500000000E+03  0.80419002446E+02 0. -1.
</event>
<event>
 4    1  0.1586888E-001  0.1250000E+03  0.7546771E-02  0.1126479E+00
        -11   -1    0    0    0    0  0.00000000000E+00  0.00000000000E+00  0.12500000000E+03  0.12500000000E+03  0.00000000000E+00 0.  1.
         11   -1    0    0    0    0 -0.00000000000E+00 -0.00000000000E+00 -0.12500000000E+03  0.12500000000E+03  0.00000000000E+00 0. -1.
         24    1    1    2    0    0  0.36048612295E+02  0.66870841391E+02  0.58194262337E+02  0.12500000000E+03  0.80419002446E+02 0.  1.
        -24    1    1    2    0    0 -0.36048612295E+02 -0.66870841391E+02 -0.58194262337E+02  0.12500000000E+03  0.80419002446E+02 0.  0.
</event>
<event>
 4    1  0.1586888E-001  0.1250000E+03  0.7546771E-02  0.1126479E+00
        -11   -1    0    0    0    0  0.00000000000E+00  0.00000000000E+00  0.12500000000E+03  0.12500000000E+03  0.00000000000E+00 0.  1.
         11   -1    0    0    0    0 -0.00000000000E+00 -0.00000000000E+00 -0.12500000000E+03  0.12500000000E+03  0.00000000000E+00 0. -1.
         24    1    1    2    0    0 -0.30543900569E+02 -0.22102596529E+02  0.87956406306E+02  0.12500000000E+03  0.80419002446E+02 0.  1.
        -24    1    1    2    0    0  0.30543900569E+02  0.22102596529E+02 -0.87956406306E+02  0.12500000000E+03  0.80419002446E+02 0. -1.
</event>
<event>
 4    1  0.1586888E-001  0.1250000E+03  0.7546771E-02  0.1126479E+00
        -11   -1    0    0    0    0  0.00000000000E+00  0.00000000000E+00  0.12500000000E+03  0.12500000000E+03  0.00000000000E+00 0.  1.
         11   -1    0    0    0    0 -0.00000000000E+00 -0.00000000000E+00 -0.12500000000E+03  0.12500000000E+03  0.00000000000E+00 0. -1.
         24    1    1    2    0    0 -0.42528437776E+02  0.34810092062E+02  0.78341390826E+02  0.12500000000E+03  0.80419002446E+02 0.  1.
        -24    1    1    2    0    0  0.42528437776E+02 -0.34810092062E+02 -0.78341390826E+02  0.12500000000E+03  0.80419002446E+02 0.  1.
</event>
<event>
 4    1  0.1586888E-001  0.1250000E+03  0.7546771E-02  0.1126479E+00
        -11   -1    0    0    0    0  0.00000000000E+00  0.00000000000E+00  0.12500000000E+03  0.12500000000E+03  0.00000000000E+00 0.  1.
         11   -1    0    0    0    0 -0.00000000000E+00 -0.00000000000E+00 -0.12500000000E+03  0.12500000000E+03  0.00000000000E+00 0. -1.
         24    1    1    2    0    0  0.85986223057E+01  0.30376260793E+02  0.90338975643E+02  0.12500000000E+03  0.80419002446E+02 0.  1.
        -24    1    1    2    0    0 -0.85986223057E+01 -0.30376260793E+02 -0.90338975643E+02  0.12500000000E+03  0.80419002446E+02 0. -1.
</event>
<event>
 4    1  0.1586888E-001  0.1250000E+03  0.7546771E-02  0.1126479E+00
        -11   -1    0    0    0    0  0.00000000000E+00  0.00000000000E+00  0.12500000000E+03  0.12500000000E+03  0.00000000000E+00 0.  1.
         11   -1    0    0    0    0 -0.00000000000E+00 -0.00000000000E+00 -0.12500000000E+03  0.12500000000E+03  0.00000000000E+00 0. -1.
         24    1    1    2    0    0 -0.46814921053E+02  0.34792533431E+02  0.75865847586E+02  0.12500000000E+03  0.80419002446E+02 0.  1.
        -24    1    1    2    0    0  0.46814921053E+02 -0.34792533431E+02 -0.75865847586E+02  0.12500000000E+03  0.80419002446E+02 0. -1.
</event>
<event>
 4    1  0.1586888E-001  0.1250000E+03  0.7546771E-02  0.1126479E+00
        -11   -1    0    0    0    0  0.00000000000E+00  0.00000000000E+00  0.12500000000E+03  0.12500000000E+03  0.00000000000E+00 0.  1.
         11   -1    0    0    0    0 -0.00000000000E+00 -0.00000000000E+00 -0.12500000000E+03  0.12500000000E+03  0.00000000000E+00 0. -1.
         24    1    1    2    0    0 -0.35678503067E+02 -0.13360868548E+02  0.87785623288E+02  0.12500000000E+03  0.80419002446E+02 0.  1.
        -24    1    1    2    0    0  0.35678503067E+02  0.13360868548E+02 -0.87785623288E+02  0.12500000000E+03  0.80419002446E+02 0. -1.
</event>
<event>
 4    1  0.1586888E-001  0.1250000E+03  0.7546771E-02  0.1126479E+00
        -11   -1    0    0    0    0  0.00000000000E+00  0.00000000000E+00  0.12500000000E+03  0.12500000000E+03  0.00000000000E+00 0.  1.
         11   -1    0    0    0    0 -0.00000000000E+00 -0.00000000000E+00 -0.12500000000E+03  0.12500000000E+03  0.00000000000E+00 0. -1.
         24    1    1    2    0    0  0.66795062033E+02  0.35274633372E+02  0.58752906091E+02  0.12500000000E+03  0.80419002446E+02 0.  1.
        -24    1    1    2    0    0 -0.66795062033E+02 -0.35274633372E+02 -0.58752906091E+02  0.12500000000E+03  0.80419002446E+02 0. -1.
</event>
<event>
 4    1  0.1586888E-001  0.1250000E+03  0.7546771E-02  0.1126479E+00
        -11   -1    0    0    0    0  0.00000000000E+00  0.00000000000E+00  0.12500000000E+03  0.12500000000E+03  0.00000000000E+00 0.  1.
         11   -1    0    0    0    0 -0.00000000000E+00 -0.00000000000E+00 -0.12500000000E+03  0.12500000000E+03  0.00000000000E+00 0. -1.
         24    1    1    2    0    0  0.32275369557E+01  0.47304405914E+02  0.83124366054E+02  0.12500000000E+03  0.80419002446E+02 0.  1.
        -24    1    1    2    0    0 -0.32275369557E+01 -0.47304405914E+02 -0.83124366054E+02  0.12500000000E+03  0.80419002446E+02 0. -1.
</event>
<event>
 4    1  0.1586888E-001  0.1250000E+03  0.7546771E-02  0.1126479E+00
        -11   -1    0    0    0    0  0.00000000000E+00  0.00000000000E+00  0.12500000000E+03  0.12500000000E+03  0.00000000000E+00 0.  1.
         11   -1    0    0    0    0 -0.00000000000E+00 -0.00000000000E+00 -0.12500000000E+03  0.12500000000E+03  0.00000000000E+00 0. -1.
         24    1    1    2    0    0 -0.95126470158E+02  0.66534183149E+01 -0.80293676932E+01  0.12500000000E+03  0.80419002446E+02 0.  1.
        -24    1    1    2    0    0  0.95126470158E+02 -0.66534183149E+01  0.80293676932E+01  0.12500000000E+03  0.80419002446E+02 0. -1.
</event>
<event>
 4    1  0.1586888E-001  0.1250000E+03  0.7546771E-02  0.1126479E+00
        -11   -1    0    0    0    0  0.00000000000E+00  0.00000000000E+00  0.12500000000E+03  0.12500000000E+03  0.00000000000E+00 0.  1.
         11   -1    0    0    0    0 -0.00000000000E+00 -0.00000000000E+00 -0.12500000000E+03  0.12500000000E+03  0.00000000000E+00 0. -1.
         24    1    1    2    0    0  0.96507749525E+01 -0.67983876074E+02  0.66654626114E+02  0.12500000000E+03  0.80419002446E+02 0.  1.
        -24    1    1    2    0    0 -0.96507749525E+01  0.67983876074E+02 -0.66654626114E+02  0.12500000000E+03  0.80419002446E+02 0. -1.
</event>
<event>
 4    1  0.1586888E-001  0.1250000E+03  0.7546771E-02  0.1126479E+00
        -11   -1    0    0    0    0  0.00000000000E+00  0.00000000000E+00  0.12500000000E+03  0.12500000000E+03  0.00000000000E+00 0.  1.
         11   -1    0    0    0    0 -0.00000000000E+00 -0.00000000000E+00 -0.12500000000E+03  0.12500000000E+03  0.00000000000E+00 0. -1.
         24    1    1    2    0    0 -0.32220698928E+02  0.36006937786E+02  0.82602124897E+02  0.12500000000E+03  0.80419002446E+02 0.  1.
        -24    1    1    2    0    0  0.32220698928E+02 -0.36006937786E+02 -0.82602124897E+02  0.12500000000E+03  0.80419002446E+02 0. -1.
</event>
<event>
 4    1  0.1586888E-001  0.1250000E+03  0.7546771E-02  0.1126479E+00
        -11   -1    0    0    0    0  0.00000000000E+00  0.00000000000E+00  0.12500000000E+03  0.12500000000E+03  0.00000000000E+00 0.  1.
         11   -1    0    0    0    0 -0.00000000000E+00 -0.00000000000E+00 -0.12500000000E+03  0.12500000000E+03  0.00000000000E+00 0. -1.
         24    1    1    2    0    0  0.86637072855E+01  0.60748487122E+02  0.73432591770E+02  0.12500000000E+03  0.80419002446E+02 0.  1.
        -24    1    1    2    0    0 -0.86637072855E+01 -0.60748487122E+02 -0.73432591770E+02  0.12500000000E+03  0.80419002446E+02 0. -1.
</event>
<event>
 4    1  0.1586888E-001  0.1250000E+03  0.7546771E-02  0.1126479E+00
        -11   -1    0    0    0    0  0.00000000000E+00  0.00000000000E+00  0.12500000000E+03  0.12500000000E+03  0.00000000000E+00 0.  1.
         11   -1    0    0    0    0 -0.00000000000E+00 -0.00000000000E+00 -0.12500000000E+03  0.12500000000E+03  0.00000000000E+00 0. -1.
         24    1    1    2    0    0  0.48438790311E+02  0.28886011177E+01  0.82481050081E+02  0.12500000000E+03  0.80419002446E+02 0.  1.
        -24    1    1    2    0    0 -0.48438790311E+02 -0.28886011177E+01 -0.82481050081E+02  0.12500000000E+03  0.80419002446E+02 0. -1.
</event>
<event>
 4    1  0.1586888E-001  0.1250000E+03  0.7546771E-02  0.1126479E+00
        -11   -1    0    0    0    0  0.00000000000E+00  0.00000000000E+00  0.12500000000E+03  0.12500000000E+03  0.00000000000E+00 0.  1.
         11   -1    0    0    0    0 -0.00000000000E+00 -0.00000000000E+00 -0.12500000000E+03  0.12500000000E+03  0.00000000000E+00 0. -1.
         24    1    1    2    0    0 -0.57871288109E+02 -0.69993793595E+02  0.30159027114E+02  0.12500000000E+03  0.80419002446E+02 0.  1.
        -24    1    1    2    0    0  0.57871288109E+02  0.69993793595E+02 -0.30159027114E+02  0.12500000000E+03  0.80419002446E+02 0.  0.
</event>
<event>
 4    1  0.1586888E-001  0.1250000E+03  0.7546771E-02  0.1126479E+00
        -11   -1    0    0    0    0  0.00000000000E+00  0.00000000000E+00  0.12500000000E+03  0.12500000000E+03  0.00000000000E+00 0.  1.
         11   -1    0    0    0    0 -0.00000000000E+00 -0.00000000000E+00 -0.12500000000E+03  0.12500000000E+03  0.00000000000E+00 0. -1.
         24    1    1    2    0    0  0.25118086963E+01 -0.14717024198E+02  0.94524515664E+02  0.12500000000E+03  0.80419002446E+02 0.  1.
        -24    1    1    2    0    0 -0.25118086963E+01  0.14717024198E+02 -0.94524515664E+02  0.12500000000E+03  0.80419002446E+02 0.  0.
</event>
<event>
 4    1  0.1586888E-001  0.1250000E+03  0.7546771E-02  0.1126479E+00
        -11   -1    0    0    0    0  0.00000000000E+00  0.00000000000E+00  0.12500000000E+03  0.12500000000E+03  0.00000000000E+00 0.  1.
         11   -1    0    0    0    0 -0.00000000000E+00 -0.00000000000E+00 -0.12500000000E+03  0.12500000000E+03  0.00000000000E+00 0. -1.
         24    1    1    2    0    0 -0.50137043344E+02  0.46588474346E+02  0.66884788917E+02  0.12500000000E+03  0.80419002446E+02 0.  1.
        -24    1    1    2    0    0  0.50137043344E+02 -0.46588474346E+02 -0.66884788917E+02  0.12500000000E+03  0.80419002446E+02 0. -1.
</event>
<event>
 4    1  0.1586888E-001  0.1250000E+03  0.7546771E-02  0.1126479E+00
        -11   -1    0    0    0    0  0.00000000000E+00  0.00000000000E+00  0.12500000000E+03  0.12500000000E+03  0.00000000000E+00 0.  1.
         11   -1    0    0    0    0 -0.00000000000E+00 -0.00000000000E+00 -0.12500000000E+03  0.12500000000E+03  0.00000000000E+00 0. -1.
         24    1    1    2    0    0 -0.41360086107E+02  0.85913226857E+02  0.81267935799E+01  0.12500000000E+03  0.80419002446E+02 0.  1.
        -24    1    1    2    0    0  0.41360086107E+02 -0.85913226857E+02 -0.81267935799E+01  0.12500000000E+03  0.80419002446E+02 0. -1.
</event>
<event>
 4    1  0.1586888E-001  0.1250000E+03  0.7546771E-02  0.1126479E+00
        -11   -1    0    0    0    0  0.00000000000E+00  0.00000000000E+00  0.12500000000E+03  0.12500000000E+03  0.00000000000E+00 0.  1.
         11   -1    0    0    0    0 -0.00000000000E+00 -0.00000000000E+00 -0.12500000000E+03  0.12500000000E+03  0.00000000000E+00 0. -1.
         24    1    1    2    0    0  0.45006551985E+01 -0.45428624569E+02  0.84105696705E+02  0.12500000000E+03  0.80419002446E+02 0.  1.
        -24    1    1    2    0    0 -0.45006551985E+01  0.45428624569E+02 -0.84105696705E+02  0.12500000000E+03  0.80419002446E+02 0. -1.
</event>
<event>
 4    1  0.1586888E-001  0.1250000E+03  0.7546771E-02  0.1126479E+00
        -11   -1    0    0    0    0  0.00000000000E+00  0.00000000000E+00  0.12500000000E+03  0.12500000000E+03  0.00000000000E+00 0.  1.
         11   -1    0    0    0    0 -0.00000000000E+00 -0.00000000000E+00 -0.12500000000E+03  0.12500000000E+03  0.00000000000E+00 0. -1.
         24    1    1    2    0    0  0.21203594940E+02 -0.15994997033E+02  0.91936672102E+02  0.12500000000E+03  0.80419002446E+02 0.  1.
        -24    1    1    2    0    0 -0.21203594940E+02  0.15994997033E+02 -0.91936672102E+02  0.12500000000E+03  0.80419002446E+02 0. -1.
</event>
<event>
 4    1  0.1586888E-001  0.1250000E+03  0.7546771E-02  0.1126479E+00
        -11   -1    0    0    0    0  0.00000000000E+00  0.00000000000E+00  0.12500000000E+03  0.12500000000E+03  0.00000000000E+00 0.  1.
         11   -1    0    0    0    0 -0.00000000000E+00 -0.00000000000E+00 -0.12500000000E+03  0.12500000000E+03  0.00000000000E+00 0. -1.
         24    1    1    2    0    0  0.70463633561E+02 -0.51618826317E+02 -0.39091650780E+02  0.12500000000E+03  0.80419002446E+02 0. -1.
        -24    1    1    2    0    0 -0.70463633561E+02  0.51618826317E+02  0.39091650780E+02  0.12500000000E+03  0.80419002446E+02 0.  1.
</event>
<event>
 4    1  0.1586888E-001  0.1250000E+03  0.7546771E-02  0.1126479E+00
        -11   -1    0    0    0    0  0.00000000000E+00  0.00000000000E+00  0.12500000000E+03  0.12500000000E+03  0.00000000000E+00 0.  1.
         11   -1    0    0    0    0 -0.00000000000E+00 -0.00000000000E+00 -0.12500000000E+03  0.12500000000E+03  0.00000000000E+00 0. -1.
         24    1    1    2    0    0 -0.79431805820E+01  0.38029323257E+02  0.87455477247E+02  0.12500000000E+03  0.80419002446E+02 0.  1.
        -24    1    1    2    0    0  0.79431805820E+01 -0.38029323257E+02 -0.87455477247E+02  0.12500000000E+03  0.80419002446E+02 0. -1.
</event>
<event>
 4    1  0.1586888E-001  0.1250000E+03  0.7546771E-02  0.1126479E+00
        -11   -1    0    0    0    0  0.00000000000E+00  0.00000000000E+00  0.12500000000E+03  0.12500000000E+03  0.00000000000E+00 0.  1.
         11   -1    0    0    0    0 -0.00000000000E+00 -0.00000000000E+00 -0.12500000000E+03  0.12500000000E+03  0.00000000000E+00 0. -1.
         24    1    1    2    0    0  0.58543484572E+02  0.58704972389E+02  0.47792998197E+02  0.12500000000E+03  0.80419002446E+02 0.  1.
        -24    1    1    2    0    0 -0.58543484572E+02 -0.58704972389E+02 -0.47792998197E+02  0.12500000000E+03  0.80419002446E+02 0. -1.
</event>
<event>
 4    1  0.1586888E-001  0.1250000E+03  0.7546771E-02  0.1126479E+00
        -11   -1    0    0    0    0  0.00000000000E+00  0.00000000000E+00  0.12500000000E+03  0.12500000000E+03  0.00000000000E+00 0.  1.
         11   -1    0    0    0    0 -0.00000000000E+00 -0.00000000000E+00 -0.12500000000E+03  0.12500000000E+03  0.00000000000E+00 0. -1.
         24    1    1    2    0    0 -0.11379674812E+02 -0.40060141581E+02  0.86159573486E+02  0.12500000000E+03  0.80419002446E+02 0.  1.
        -24    1    1    2    0    0  0.11379674812E+02  0.40060141581E+02 -0.86159573486E+02  0.12500000000E+03  0.80419002446E+02 0. -1.
</event>
<event>
 4    1  0.1586888E-001  0.1250000E+03  0.7546771E-02  0.1126479E+00
        -11   -1    0    0    0    0  0.00000000000E+00  0.00000000000E+00  0.12500000000E+03  0.12500000000E+03  0.00000000000E+00 0.  1.
         11   -1    0    0    0    0 -0.00000000000E+00 -0.00000000000E+00 -0.12500000000E+03  0.12500000000E+03  0.00000000000E+00 0. -1.
         24    1    1    2    0    0 -0.83865666666E+01  0.80113094716E+02  0.51665671390E+02  0.12500000000E+03  0.80419002446E+02 0.  0.
        -24    1    1    2    0    0  0.83865666666E+01 -0.80113094716E+02 -0.51665671390E+02  0.12500000000E+03  0.80419002446E+02 0.  1.
</event>
<event>
 4    1  0.1586888E-001  0.1250000E+03  0.7546771E-02  0.1126479E+00
        -11   -1    0    0    0    0  0.00000000000E+00  0.00000000000E+00  0.12500000000E+03  0.12500000000E+03  0.00000000000E+00 0.  1.
         11   -1    0    0    0    0 -0.00000000000E+00 -0.00000000000E+00 -0.12500000000E+03  0.12500000000E+03  0.00000000000E+00 0. -1.
         24    1    1    2    0    0 -0.69487969861E+02  0.25342619348E+02  0.60720323902E+02  0.12500000000E+03  0.80419002446E+02 0.  1.
        -24    1    1    2    0    0  0.69487969861E+02 -0.25342619348E+02 -0.60720323902E+02  0.12500000000E+03  0.80419002446E+02 0. -1.
</event>
<event>
 4    1  0.1586888E-001  0.1250000E+03  0.7546771E-02  0.1126479E+00
        -11   -1    0    0    0    0  0.00000000000E+00  0.00000000000E+00  0.12500000000E+03  0.12500000000E+03  0.00000000000E+00 0.  1.
         11   -1    0    0    0    0 -0.00000000000E+00 -0.00000000000E+00 -0.12500000000E+03  0.12500000000E+03  0.00000000000E+00 0. -1.
         24    1    1    2    0    0 -0.43581070791E+02 -0.41707753727E+02  0.74289552384E+02  0.12500000000E+03  0.80419002446E+02 0.  1.
        -24    1    1    2    0    0  0.43581070791E+02  0.41707753727E+02 -0.74289552384E+02  0.12500000000E+03  0.80419002446E+02 0. -1.
</event>
<event>
 4    1  0.1586888E-001  0.1250000E+03  0.7546771E-02  0.1126479E+00
        -11   -1    0    0    0    0  0.00000000000E+00  0.00000000000E+00  0.12500000000E+03  0.12500000000E+03  0.00000000000E+00 0.  1.
         11   -1    0    0    0    0 -0.00000000000E+00 -0.00000000000E+00 -0.12500000000E+03  0.12500000000E+03  0.00000000000E+00 0. -1.
         24    1    1    2    0    0 -0.12858244988E+02  0.30276965681E+02  0.89865204226E+02  0.12500000000E+03  0.80419002446E+02 0.  1.
        -24    1    1    2    0    0  0.12858244988E+02 -0.30276965681E+02 -0.89865204226E+02  0.12500000000E+03  0.80419002446E+02 0. -1.
</event>
<event>
 4    1  0.1586888E-001  0.1250000E+03  0.7546771E-02  0.1126479E+00
        -11   -1    0    0    0    0  0.00000000000E+00  0.00000000000E+00  0.12500000000E+03  0.12500000000E+03  0.00000000000E+00 0.  1.
         11   -1    0    0    0    0 -0.00000000000E+00 -0.00000000000E+00 -0.12500000000E+03  0.12500000000E+03  0.00000000000E+00 0. -1.
         24    1    1    2    0    0  0.60423568735E+02  0.43327255120E+02  0.60245542164E+02  0.12500000000E+03  0.80419002446E+02 0.  0.
        -24    1    1    2    0    0 -0.60423568735E+02 -0.43327255120E+02 -0.60245542164E+02  0.12500000000E+03  0.80419002446E+02 0.  1.
</event>
<event>
 4    1  0.1586888E-001  0.1250000E+03  0.7546771E-02  0.1126479E+00
        -11   -1    0    0    0    0  0.00000000000E+00  0.00000000000E+00  0.12500000000E+03  0.12500000000E+03  0.00000000000E+00 0.  1.
         11   -1    0    0    0    0 -0.00000000000E+00 -0.00000000000E+00 -0.12500000000E+03  0.12500000000E+03  0.00000000000E+00 0. -1.
         24    1    1    2    0    0 -0.67423492646E+02  0.49522341908E+02  0.46469283801E+02  0.12500000000E+03  0.80419002446E+02 0.  1.
        -24    1    1    2    0    0  0.67423492646E+02 -0.49522341908E+02 -0.46469283801E+02  0.12500000000E+03  0.80419002446E+02 0. -1.
</event>
<event>
 4    1  0.1586888E-001  0.1250000E+03  0.7546771E-02  0.1126479E+00
        -11   -1    0    0    0    0  0.00000000000E+00  0.00000000000E+00  0.12500000000E+03  0.12500000000E+03  0.00000000000E+00 0.  1.
         11   -1    0    0    0    0 -0.00000000000E+00 -0.00000000000E+00 -0.12500000000E+03  0.12500000000E+03  0.00000000000E+00 0. -1.
         24    1    1    2    0    0  0.68050307584E+02  0.65505240220E+02  0.15362395225E+02  0.12500000000E+03  0.80419002446E+02 0. -1.
        -24    1    1    2    0    0 -0.68050307584E+02 -0.65505240220E+02 -0.15362395225E+02  0.12500000000E+03  0.80419002446E+02 0.  1.
</event>
<event>
 4    1  0.1586888E-001  0.1250000E+03  0.7546771E-02  0.1126479E+00
        -11   -1    0    0    0    0  0.00000000000E+00  0.00000000000E+00  0.12500000000E+03  0.12500000000E+03  0.00000000000E+00 0.  1.
         11   -1    0    0    0    0 -0.00000000000E+00 -0.00000000000E+00 -0.12500000000E+03  0.12500000000E+03  0.00000000000E+00 0. -1.
         24    1    1    2    0    0  0.39098354910E+02  0.54864065981E+01  0.87172254942E+02  0.12500000000E+03  0.80419002446E+02 0.  1.
        -24    1    1    2    0    0 -0.39098354910E+02 -0.54864065981E+01 -0.87172254942E+02  0.12500000000E+03  0.80419002446E+02 0. -1.
</event>
<event>
 4    1  0.1586888E-001  0.1250000E+03  0.7546771E-02  0.1126479E+00
        -11   -1    0    0    0    0  0.00000000000E+00  0.00000000000E+00  0.12500000000E+03  0.12500000000E+03  0.00000000000E+00 0.  1.
         11   -1    0    0    0    0 -0.00000000000E+00 -0.00000000000E+00 -0.12500000000E+03  0.12500000000E+03  0.00000000000E+00 0. -1.
         24    1    1    2    0    0 -0.20983947831E+02 -0.31486075600E+02  0.87898151416E+02  0.12500000000E+03  0.80419002446E+02 0.  1.
        -24    1    1    2    0    0  0.20983947831E+02  0.31486075600E+02 -0.87898151416E+02  0.12500000000E+03  0.80419002446E+02 0. -1.
</event>
<event>
 4    1  0.1586888E-001  0.1250000E+03  0.7546771E-02  0.1126479E+00
        -11   -1    0    0    0    0  0.00000000000E+00  0.00000000000E+00  0.12500000000E+03  0.12500000000E+03  0.00000000000E+00 0.  1.
         11   -1    0    0    0    0 -0.00000000000E+00 -0.00000000000E+00 -0.12500000000E+03  0.12500000000E+03  0.00000000000E+00 0. -1.
         24    1    1    2    0    0  0.37593837199E+02  0.63293122300E+02  0.61143013663E+02  0.12500000000E+03  0.80419002446E+02 0.  1.
        -24    1    1    2    0    0 -0.37593837199E+02 -0.63293122300E+02 -0.61143013663E+02  0.12500000000E+03  0.80419002446E+02 0. -1.
</event>
<event>
 4    1  0.1586888E-001  0.1250000E+03  0.7546771E-02  0.1126479E+00
        -11   -1    0    0    0    0  0.00000000000E+00  0.00000000000E+00  0.12500000000E+03  0.12500000000E+03  0.00000000000E+00 0.  1.
         11   -1    0    0    0    0 -0.00000000000E+00 -0.00000000000E+00 -0.12500000000E+03  0.12500000000E+03  0.00000000000E+00 0. -1.
         24    1    1    2    0    0  0.59834995522E+02  0.39087764358E+02  0.63637284935E+02  0.12500000000E+03  0.80419002446E+02 0.  0.
        -24    1    1    2    0    0 -0.59834995522E+02 -0.39087764358E+02 -0.63637284935E+02  0.12500000000E+03  0.80419002446E+02 0.  1.
</event>
<event>
 4    1  0.1586888E-001  0.1250000E+03  0.7546771E-02  0.1126479E+00
        -11   -1    0    0    0    0  0.00000000000E+00  0.00000000000E+00  0.12500000000E+03  0.12500000000E+03  0.00000000000E+00 0.  1.
         11   -1    0    0    0    0 -0.00000000000E+00 -0.00000000000E+00 -0.12500000000E+03  0.12500000000E+03  0.00000000000E+00 0. -1.
         24    1    1    2    0    0 -0.52978542354E+02 -0.49847999025E+02  0.62179056674E+02  0.12500000000E+03  0.80419002446E+02 0.  1.
        -24    1    1    2    0    0  0.52978542354E+02  0.49847999025E+02 -0.62179056674E+02  0.12500000000E+03  0.80419002446E+02 0. -1.
</event>
<event>
 4    1  0.1586888E-001  0.1250000E+03  0.7546771E-02  0.1126479E+00
        -11   -1    0    0    0    0  0.00000000000E+00  0.00000000000E+00  0.12500000000E+03  0.12500000000E+03  0.00000000000E+00 0.  1.
         11   -1    0    0    0    0 -0.00000000000E+00 -0.00000000000E+00 -0.12500000000E+03  0.12500000000E+03  0.00000000000E+00 0. -1.
         24    1    1    2    0    0  0.28982918256E+02 -0.82826685658E+02  0.38177410047E+02  0.12500000000E+03  0.80419002446E+02 0.  0.
        -24    1    1    2    0    0 -0.28982918256E+02  0.82826685658E+02 -0.38177410047E+02  0.12500000000E+03  0.80419002446E+02 0. -1.
</event>
<event>
 4    1  0.1586888E-001  0.1250000E+03  0.7546771E-02  0.1126479E+00
        -11   -1    0    0    0    0  0.00000000000E+00  0.00000000000E+00  0.12500000000E+03  0.12500000000E+03  0.00000000000E+00 0.  1.
         11   -1    0    0    0    0 -0.00000000000E+00 -0.00000000000E+00 -0.12500000000E+03  0.12500000000E+03  0.00000000000E+00 0. -1.
         24    1    1    2    0    0  0.47788211388E+02  0.79435005287E+02  0.23751859571E+02  0.12500000000E+03  0.80419002446E+02 0.  0.
        -24    1    1    2    0    0 -0.47788211388E+02 -0.79435005287E+02 -0.23751859571E+02  0.12500000000E+03  0.80419002446E+02 0. -1.
</event>
<event>
 4    1  0.1586888E-001  0.1250000E+03  0.7546771E-02  0.1126479E+00
        -11   -1    0    0    0    0  0.00000000000E+00  0.00000000000E+00  0.12500000000E+03  0.12500000000E+03  0.00000000000E+00 0.  1.
         11   -1    0    0    0    0 -0.00000000000E+00 -0.00000000000E+00 -0.12500000000E+03  0.12500000000E+03  0.00000000000E+00 0. -1.
         24    1    1    2    0    0 -0.34692505540E+02 -0.80111448690E+02  0.39196554616E+02  0.12500000000E+03  0.80419002446E+02 0. -1.
        -24    1    1    2    0    0  0.34692505540E+02  0.80111448690E+02 -0.39196554616E+02  0.12500000000E+03  0.80419002446E+02 0.  0.
</event>
<event>
 4    1  0.1586888E-001  0.1250000E+03  0.7546771E-02  0.1126479E+00
        -11   -1    0    0    0    0  0.00000000000E+00  0.00000000000E+00  0.12500000000E+03  0.12500000000E+03  0.00000000000E+00 0.  1.
         11   -1    0    0    0    0 -0.00000000000E+00 -0.00000000000E+00 -0.12500000000E+03  0.12500000000E+03  0.00000000000E+00 0. -1.
         24    1    1    2    0    0 -0.42872985828E+02  0.23605963112E+02  0.82234114802E+02  0.12500000000E+03  0.80419002446E+02 0. -1.
        -24    1    1    2    0    0  0.42872985828E+02 -0.23605963112E+02 -0.82234114802E+02  0.12500000000E+03  0.80419002446E+02 0.  0.
</event>
<event>
 4    1  0.1586888E-001  0.1250000E+03  0.7546771E-02  0.1126479E+00
        -11   -1    0    0    0    0  0.00000000000E+00  0.00000000000E+00  0.12500000000E+03  0.12500000000E+03  0.00000000000E+00 0.  1.
         11   -1    0    0    0    0 -0.00000000000E+00 -0.00000000000E+00 -0.12500000000E+03  0.12500000000E+03  0.00000000000E+00 0. -1.
         24    1    1    2    0    0  0.54452858143E+02 -0.50094424507E+01  0.78533914789E+02  0.12500000000E+03  0.80419002446E+02 0.  1.
        -24    1    1    2    0    0 -0.54452858143E+02  0.50094424507E+01 -0.78533914789E+02  0.12500000000E+03  0.80419002446E+02 0. -1.
</event>
<event>
 4    1  0.1586888E-001  0.1250000E+03  0.7546771E-02  0.1126479E+00
        -11   -1    0    0    0    0  0.00000000000E+00  0.00000000000E+00  0.12500000000E+03  0.12500000000E+03  0.00000000000E+00 0.  1.
         11   -1    0    0    0    0 -0.00000000000E+00 -0.00000000000E+00 -0.12500000000E+03  0.12500000000E+03  0.00000000000E+00 0. -1.
         24    1    1    2    0    0  0.19017351292E+02 -0.67465193125E+01  0.93544689174E+02  0.12500000000E+03  0.80419002446E+02 0.  0.
        -24    1    1    2    0    0 -0.19017351292E+02  0.67465193125E+01 -0.93544689174E+02  0.12500000000E+03  0.80419002446E+02 0. -1.
</event>
<event>
 4    1  0.1586888E-001  0.1250000E+03  0.7546771E-02  0.1126479E+00
        -11   -1    0    0    0    0  0.00000000000E+00  0.00000000000E+00  0.12500000000E+03  0.12500000000E+03  0.00000000000E+00 0.  1.
         11   -1    0    0    0    0 -0.00000000000E+00 -0.00000000000E+00 -0.12500000000E+03  0.12500000000E+03  0.00000000000E+00 0. -1.
         24    1    1    2    0    0  0.36332608734E+02  0.56775567081E+00  0.88529109573E+02  0.12500000000E+03  0.80419002446E+02 0.  1.
        -24    1    1    2    0    0 -0.36332608734E+02 -0.56775567081E+00 -0.88529109573E+02  0.12500000000E+03  0.80419002446E+02 0. -1.
</event>
<event>
 4    1  0.1586888E-001  0.1250000E+03  0.7546771E-02  0.1126479E+00
        -11   -1    0    0    0    0  0.00000000000E+00  0.00000000000E+00  0.12500000000E+03  0.12500000000E+03  0.00000000000E+00 0.  1.
         11   -1    0    0    0    0 -0.00000000000E+00 -0.00000000000E+00 -0.12500000000E+03  0.12500000000E+03  0.00000000000E+00 0. -1.
         24    1    1    2    0    0  0.58205920786E+02 -0.26504743311E+02  0.71185345494E+02  0.12500000000E+03  0.80419002446E+02 0.  1.
        -24    1    1    2    0    0 -0.58205920786E+02  0.26504743311E+02 -0.71185345494E+02  0.12500000000E+03  0.80419002446E+02 0. -1.
</event>
<event>
 4    1  0.1586888E-001  0.1250000E+03  0.7546771E-02  0.1126479E+00
        -11   -1    0    0    0    0  0.00000000000E+00  0.00000000000E+00  0.12500000000E+03  0.12500000000E+03  0.00000000000E+00 0.  1.
         11   -1    0    0    0    0 -0.00000000000E+00 -0.00000000000E+00 -0.12500000000E+03  0.12500000000E+03  0.00000000000E+00 0. -1.
         24    1    1    2    0    0  0.47332312471E+02  0.39845504957E+02  0.73005287319E+02  0.12500000000E+03  0.80419002446E+02 0.  1.
        -24    1    1    2    0    0 -0.47332312471E+02 -0.39845504957E+02 -0.73005287319E+02  0.12500000000E+03  0.80419002446E+02 0. -1.
</event>
<event>
 4    1  0.1586888E-001  0.1250000E+03  0.7546771E-02  0.1126479E+00
        -11   -1    0    0    0    0  0.00000000000E+00  0.00000000000E+00  0.12500000000E+03  0.12500000000E+03  0.00000000000E+00 0.  1.
         11   -1    0    0    0    0 -0.00000000000E+00 -0.00000000000E+00 -0.12500000000E+03  0.12500000000E+03  0.00000000000E+00 0. -1.
         24    1    1    2    0    0 -0.72074077062E+02 -0.39849337578E+02  0.48735426086E+02  0.12500000000E+03  0.80419002446E+02 0.  1.
        -24    1    1    2    0    0  0.72074077062E+02  0.39849337578E+02 -0.48735426086E+02  0.12500000000E+03  0.80419002446E+02 0. -1.
</event>
<event>
 4    1  0.1586888E-001  0.1250000E+03  0.7546771E-02  0.1126479E+00
        -11   -1    0    0    0    0  0.00000000000E+00  0.00000000000E+00  0.12500000000E+03  0.12500000000E+03  0.00000000000E+00 0.  1.
         11   -1    0    0    0    0 -0.00000000000E+00 -0.00000000000E+00 -0.12500000000E+03  0.12500000000E+03  0.00000000000E+00 0. -1.
         24    1    1    2    0    0  0.19424673513E+02 -0.10031257251E+02  0.93165658815E+02  0.12500000000E+03  0.80419002446E+02 0.  1.
        -24    1    1    2    0    0 -0.19424673513E+02  0.10031257251E+02 -0.93165658815E+02  0.12500000000E+03  0.80419002446E+02 0. -1.
</event>
<event>
 4    1  0.1586888E-001  0.1250000E+03  0.7546771E-02  0.1126479E+00
        -11   -1    0    0    0    0  0.00000000000E+00  0.00000000000E+00  0.12500000000E+03  0.12500000000E+03  0.00000000000E+00 0.  1.
         11   -1    0    0    0    0 -0.00000000000E+00 -0.00000000000E+00 -0.12500000000E+03  0.12500000000E+03  0.00000000000E+00 0. -1.
         24    1    1    2    0    0  0.59205708056E+01 -0.28270068529E+02  0.91233404586E+02  0.12500000000E+03  0.80419002446E+02 0.  1.
        -24    1    1    2    0    0 -0.59205708056E+01  0.28270068529E+02 -0.91233404586E+02  0.12500000000E+03  0.80419002446E+02 0. -1.
</event>
<event>
 4    1  0.1586888E-001  0.1250000E+03  0.7546771E-02  0.1126479E+00
        -11   -1    0    0    0    0  0.00000000000E+00  0.00000000000E+00  0.12500000000E+03  0.12500000000E+03  0.00000000000E+00 0.  1.
         11   -1    0    0    0    0 -0.00000000000E+00 -0.00000000000E+00 -0.12500000000E+03  0.12500000000E+03  0.00000000000E+00 0. -1.
         24    1    1    2    0    0 -0.91355708788E+02 -0.26881719733E+02  0.94494265287E+01  0.12500000000E+03  0.80419002446E+02 0.  0.
        -24    1    1    2    0    0  0.91355708788E+02  0.26881719733E+02 -0.94494265287E+01  0.12500000000E+03  0.80419002446E+02 0.  0.
</event>
<event>
 4    1  0.1586888E-001  0.1250000E+03  0.7546771E-02  0.1126479E+00
        -11   -1    0    0    0    0  0.00000000000E+00  0.00000000000E+00  0.12500000000E+03  0.12500000000E+03  0.00000000000E+00 0.  1.
         11   -1    0    0    0    0 -0.00000000000E+00 -0.00000000000E+00 -0.12500000000E+03  0.12500000000E+03  0.00000000000E+00 0. -1.
         24    1    1    2    0    0  0.51004399680E+02  0.50982249763E+02  0.62905846056E+02  0.12500000000E+03  0.80419002446E+02 0.  1.
        -24    1    1    2    0    0 -0.51004399680E+02 -0.50982249763E+02 -0.62905846056E+02  0.12500000000E+03  0.80419002446E+02 0. -1.
</event>
<event>
 4    1  0.1586888E-001  0.1250000E+03  0.7546771E-02  0.1126479E+00
        -11   -1    0    0    0    0  0.00000000000E+00  0.00000000000E+00  0.12500000000E+03  0.12500000000E+03  0.00000000000E+00 0.  1.
         11   -1    0    0    0    0 -0.00000000000E+00 -0.00000000000E+00 -0.12500000000E+03  0.12500000000E+03  0.00000000000E+00 0. -1.
         24    1    1    2    0    0  0.18357452838E+02 -0.31080881136E+02  0.88627122252E+02  0.12500000000E+03  0.80419002446E+02 0.  1.
        -24    1    1    2    0    0 -0.18357452838E+02  0.31080881136E+02 -0.88627122252E+02  0.12500000000E+03  0.80419002446E+02 0. -1.
</event>
<event>
 4    1  0.1586888E-001  0.1250000E+03  0.7546771E-02  0.1126479E+00
        -11   -1    0    0    0    0  0.00000000000E+00  0.00000000000E+00  0.12500000000E+03  0.12500000000E+03  0.00000000000E+00 0.  1.
         11   -1    0    0    0    0 -0.00000000000E+00 -0.00000000000E+00 -0.12500000000E+03  0.12500000000E+03  0.00000000000E+00 0. -1.
         24    1    1    2    0    0  0.35564696764E+01 -0.17174590364E+02  0.94075336911E+02  0.12500000000E+03  0.80419002446E+02 0.  1.
        -24    1    1    2    0    0 -0.35564696764E+01  0.17174590364E+02 -0.94075336911E+02  0.12500000000E+03  0.80419002446E+02 0. -1.
</event>
<event>
 4    1  0.1586888E-001  0.1250000E+03  0.7546771E-02  0.1126479E+00
        -11   -1    0    0    0    0  0.00000000000E+00  0.00000000000E+00  0.12500000000E+03  0.12500000000E+03  0.00000000000E+00 0.  1.
         11   -1    0    0    0    0 -0.00000000000E+00 -0.00000000000E+00 -0.12500000000E+03  0.12500000000E+03  0.00000000000E+00 0. -1.
         24    1    1    2    0    0  0.40289794476E+02  0.12844403456E+02  0.85846012176E+02  0.12500000000E+03  0.80419002446E+02 0.  1.
        -24    1    1    2    0    0 -0.40289794476E+02 -0.12844403456E+02 -0.85846012176E+02  0.12500000000E+03  0.80419002446E+02 0. -1.
</event>
<event>
 4    1  0.1586888E-001  0.1250000E+03  0.7546771E-02  0.1126479E+00
        -11   -1    0    0    0    0  0.00000000000E+00  0.00000000000E+00  0.12500000000E+03  0.12500000000E+03  0.00000000000E+00 0.  1.
         11   -1    0    0    0    0 -0.00000000000E+00 -0.00000000000E+00 -0.12500000000E+03  0.12500000000E+03  0.00000000000E+00 0. -1.
         24    1    1    2    0    0  0.43651864393E+02 -0.20546585893E+02  0.82644640412E+02  0.12500000000E+03  0.80419002446E+02 0.  1.
        -24    1    1    2    0    0 -0.43651864393E+02  0.20546585893E+02 -0.82644640412E+02  0.12500000000E+03  0.80419002446E+02 0. -1.
</event>
<event>
 4    1  0.1586888E-001  0.1250000E+03  0.7546771E-02  0.1126479E+00
        -11   -1    0    0    0    0  0.00000000000E+00  0.00000000000E+00  0.12500000000E+03  0.12500000000E+03  0.00000000000E+00 0.  1.
         11   -1    0    0    0    0 -0.00000000000E+00 -0.00000000000E+00 -0.12500000000E+03  0.12500000000E+03  0.00000000000E+00 0. -1.
         24    1    1    2    0    0  0.13841829535E+01  0.12110849137E+01  0.95678635842E+02  0.12500000000E+03  0.80419002446E+02 0.  0.
        -24    1    1    2    0    0 -0.13841829535E+01 -0.12110849137E+01 -0.95678635842E+02  0.12500000000E+03  0.80419002446E+02 0. -1.
</event>
<event>
 4    1  0.1586888E-001  0.1250000E+03  0.7546771E-02  0.1126479E+00
        -11   -1    0    0    0    0  0.00000000000E+00  0.00000000000E+00  0.12500000000E+03  0.12500000000E+03  0.00000000000E+00 0.  1.
         11   -1    0    0    0    0 -0.00000000000E+00 -0.00000000000E+00 -0.12500000000E+03  0.12500000000E+03  0.00000000000E+00 0. -1.
         24    1    1    2    0    0 -0.45673494262E+01 -0.20969862373E+02  0.93258716681E+02  0.12500000000E+03  0.80419002446E+02 0.  1.
        -24    1    1    2    0    0  0.45673494262E+01  0.20969862373E+02 -0.93258716681E+02  0.12500000000E+03  0.80419002446E+02 0.  0.
</event>
<event>
 4    1  0.1586888E-001  0.1250000E+03  0.7546771E-02  0.1126479E+00
        -11   -1    0    0    0    0  0.00000000000E+00  0.00000000000E+00  0.12500000000E+03  0.12500000000E+03  0.00000000000E+00 0.  1.
         11   -1    0    0    0    0 -0.00000000000E+00 -0.00000000000E+00 -0.12500000000E+03  0.12500000000E+03  0.00000000000E+00 0. -1.
         24    1    1    2    0    0 -0.32481772044E+02 -0.24596659494E+02  0.86589392377E+02  0.12500000000E+03  0.80419002446E+02 0.  1.
        -24    1    1    2    0    0  0.32481772044E+02  0.24596659494E+02 -0.86589392377E+02  0.12500000000E+03  0.80419002446E+02 0. -1.
</event>
<event>
 4    1  0.1586888E-001  0.1250000E+03  0.7546771E-02  0.1126479E+00
        -11   -1    0    0    0    0  0.00000000000E+00  0.00000000000E+00  0.12500000000E+03  0.12500000000E+03  0.00000000000E+00 0.  1.
         11   -1    0    0    0    0 -0.00000000000E+00 -0.00000000000E+00 -0.12500000000E+03  0.12500000000E+03  0.00000000000E+00 0. -1.
         24    1    1    2    0    0 -0.91787656927E+01 -0.19848735993E+02  0.93164166853E+02  0.12500000000E+03  0.80419002446E+02 0.  1.
        -24    1    1    2    0    0  0.91787656927E+01  0.19848735993E+02 -0.93164166853E+02  0.12500000000E+03  0.80419002446E+02 0. -1.
</event>
<event>
 4    1  0.1586888E-001  0.1250000E+03  0.7546771E-02  0.1126479E+00
        -11   -1    0    0    0    0  0.00000000000E+00  0.00000000000E+00  0.12500000000E+03  0.12500000000E+03  0.00000000000E+00 0.  1.
         11   -1    0    0    0    0 -0.00000000000E+00 -0.00000000000E+00 -0.12500000000E+03  0.12500000000E+03  0.00000000000E+00 0. -1.
         24    1    1    2    0    0 -0.46460226703E+02 -0.83562667452E+02 -0.40634946304E+01  0.12500000000E+03  0.80419002446E+02 0.  0.
        -24    1    1    2    0    0  0.46460226703E+02  0.83562667452E+02  0.40634946304E+01  0.12500000000E+03  0.80419002446E+02 0. -1.
</event>
<event>
 4    1  0.1586888E-001  0.1250000E+03  0.7546771E-02  0.1126479E+00
        -11   -1    0    0    0    0  0.00000000000E+00  0.00000000000E+00  0.12500000000E+03  0.12500000000E+03  0.00000000000E+00 0.  1.
         11   -1    0    0    0    0 -0.00000000000E+00 -0.00000000000E+00 -0.12500000000E+03  0.12500000000E+03  0.00000000000E+00 0. -1.
         24    1    1    2    0    0  0.65529886492E+02  0.42796025431E+02  0.55064673151E+02  0.12500000000E+03  0.80419002446E+02 0.  1.
        -24    1    1    2    0    0 -0.65529886492E+02 -0.42796025431E+02 -0.55064673151E+02  0.12500000000E+03  0.80419002446E+02 0. -1.
</event>
<event>
 4    1  0.1586888E-001  0.1250000E+03  0.7546771E-02  0.1126479E+00
        -11   -1    0    0    0    0  0.00000000000E+00  0.00000000000E+00  0.12500000000E+03  0.12500000000E+03  0.00000000000E+00 0.  1.
         11   -1    0    0    0    0 -0.00000000000E+00 -0.00000000000E+00 -0.12500000000E+03  0.12500000000E+03  0.00000000000E+00 0. -1.
         24    1    1    2    0    0  0.20759585532E+02 -0.87152458718E+01  0.93010043240E+02  0.12500000000E+03  0.80419002446E+02 0.  1.
        -24    1    1    2    0    0 -0.20759585532E+02  0.87152458718E+01 -0.93010043240E+02  0.12500000000E+03  0.80419002446E+02 0. -1.
</event>
<event>
 4    1  0.1586888E-001  0.1250000E+03  0.7546771E-02  0.1126479E+00
        -11   -1    0    0    0    0  0.00000000000E+00  0.00000000000E+00  0.12500000000E+03  0.12500000000E+03  0.00000000000E+00 0.  1.
         11   -1    0    0    0    0 -0.00000000000E+00 -0.00000000000E+00 -0.12500000000E+03  0.12500000000E+03  0.00000000000E+00 0. -1.
         24    1    1    2    0    0  0.28063196466E+02  0.56920066279E+01  0.91311785166E+02  0.12500000000E+03  0.80419002446E+02 0.  1.
        -24    1    1    2    0    0 -0.28063196466E+02 -0.56920066279E+01 -0.91311785166E+02  0.12500000000E+03  0.80419002446E+02 0. -1.
</event>
<event>
 4    1  0.1586888E-001  0.1250000E+03  0.7546771E-02  0.1126479E+00
        -11   -1    0    0    0    0  0.00000000000E+00  0.00000000000E+00  0.12500000000E+03  0.12500000000E+03  0.00000000000E+00 0.  1.
         11   -1    0    0    0    0 -0.00000000000E+00 -0.00000000000E+00 -0.12500000000E+03  0.12500000000E+03  0.00000000000E+00 0. -1.
         24    1    1    2    0    0  0.40073355353E+02 -0.29523901434E+02  0.81732793177E+02  0.12500000000E+03  0.80419002446E+02 0.  1.
        -24    1    1    2    0    0 -0.40073355353E+02  0.29523901434E+02 -0.81732793177E+02  0.12500000000E+03  0.80419002446E+02 0. -1.
</event>
<event>
 4    1  0.1586888E-001  0.1250000E+03  0.7546771E-02  0.1126479E+00
        -11   -1    0    0    0    0  0.00000000000E+00  0.00000000000E+00  0.12500000000E+03  0.12500000000E+03  0.00000000000E+00 0.  1.
         11   -1    0    0    0    0 -0.00000000000E+00 -0.00000000000E+00 -0.12500000000E+03  0.12500000000E+03  0.00000000000E+00 0. -1.
         24    1    1    2    0    0  0.70203651644E+02  0.15014795142E+02  0.63275487105E+02  0.12500000000E+03  0.80419002446E+02 0.  1.
        -24    1    1    2    0    0 -0.70203651644E+02 -0.15014795142E+02 -0.63275487105E+02  0.12500000000E+03  0.80419002446E+02 0. -1.
</event>
<event>
 4    1  0.1586888E-001  0.1250000E+03  0.7546771E-02  0.1126479E+00
        -11   -1    0    0    0    0  0.00000000000E+00  0.00000000000E+00  0.12500000000E+03  0.12500000000E+03  0.00000000000E+00 0.  1.
         11   -1    0    0    0    0 -0.00000000000E+00 -0.00000000000E+00 -0.12500000000E+03  0.12500000000E+03  0.00000000000E+00 0. -1.
         24    1    1    2    0    0  0.43376721877E+02  0.26773088742E+02  0.80990405383E+02  0.12500000000E+03  0.80419002446E+02 0.  1.
        -24    1    1    2    0    0 -0.43376721877E+02 -0.26773088742E+02 -0.80990405383E+02  0.12500000000E+03  0.80419002446E+02 0. -1.
</event>
<event>
 4    1  0.1586888E-001  0.1250000E+03  0.7546771E-02  0.1126479E+00
        -11   -1    0    0    0    0  0.00000000000E+00  0.00000000000E+00  0.12500000000E+03  0.12500000000E+03  0.00000000000E+00 0.  1.
         11   -1    0    0    0    0 -0.00000000000E+00 -0.00000000000E+00 -0.12500000000E+03  0.12500000000E+03  0.00000000000E+00 0. -1.
         24    1    1    2    0    0  0.58784033186E+02 -0.24588446094E+02  0.71397687684E+02  0.12500000000E+03  0.80419002446E+02 0.  1.
        -24    1    1    2    0    0 -0.58784033186E+02  0.24588446094E+02 -0.71397687684E+02  0.12500000000E+03  0.80419002446E+02 0. -1.
</event>
<event>
 4    1  0.1586888E-001  0.1250000E+03  0.7546771E-02  0.1126479E+00
        -11   -1    0    0    0    0  0.00000000000E+00  0.00000000000E+00  0.12500000000E+03  0.12500000000E+03  0.00000000000E+00 0.  1.
         11   -1    0    0    0    0 -0.00000000000E+00 -0.00000000000E+00 -0.12500000000E+03  0.12500000000E+03  0.00000000000E+00 0. -1.
         24    1    1    2    0    0 -0.58283747576E+02 -0.19800594570E+01  0.75874028354E+02  0.12500000000E+03  0.80419002446E+02 0.  1.
        -24    1    1    2    0    0  0.58283747576E+02  0.19800594570E+01 -0.75874028354E+02  0.12500000000E+03  0.80419002446E+02 0. -1.
</event>
<event>
 4    1  0.1586888E-001  0.1250000E+03  0.7546771E-02  0.1126479E+00
        -11   -1    0    0    0    0  0.00000000000E+00  0.00000000000E+00  0.12500000000E+03  0.12500000000E+03  0.00000000000E+00 0.  1.
         11   -1    0    0    0    0 -0.00000000000E+00 -0.00000000000E+00 -0.12500000000E+03  0.12500000000E+03  0.00000000000E+00 0. -1.
         24    1    1    2    0    0  0.39998445678E+02 -0.86108773383E+02 -0.11966099423E+02  0.12500000000E+03  0.80419002446E+02 0.  1.
        -24    1    1    2    0    0 -0.39998445678E+02  0.86108773383E+02  0.11966099423E+02  0.12500000000E+03  0.80419002446E+02 0.  0.
</event>
<event>
 4    1  0.1586888E-001  0.1250000E+03  0.7546771E-02  0.1126479E+00
        -11   -1    0    0    0    0  0.00000000000E+00  0.00000000000E+00  0.12500000000E+03  0.12500000000E+03  0.00000000000E+00 0.  1.
         11   -1    0    0    0    0 -0.00000000000E+00 -0.00000000000E+00 -0.12500000000E+03  0.12500000000E+03  0.00000000000E+00 0. -1.
         24    1    1    2    0    0 -0.50153482842E+02  0.14380232672E+02  0.80222323033E+02  0.12500000000E+03  0.80419002446E+02 0.  1.
        -24    1    1    2    0    0  0.50153482842E+02 -0.14380232672E+02 -0.80222323033E+02  0.12500000000E+03  0.80419002446E+02 0. -1.
</event>
<event>
 4    1  0.1586888E-001  0.1250000E+03  0.7546771E-02  0.1126479E+00
        -11   -1    0    0    0    0  0.00000000000E+00  0.00000000000E+00  0.12500000000E+03  0.12500000000E+03  0.00000000000E+00 0.  1.
         11   -1    0    0    0    0 -0.00000000000E+00 -0.00000000000E+00 -0.12500000000E+03  0.12500000000E+03  0.00000000000E+00 0. -1.
         24    1    1    2    0    0  0.85203783071E+01 -0.58092702445E+02  0.75567354868E+02  0.12500000000E+03  0.80419002446E+02 0.  1.
        -24    1    1    2    0    0 -0.85203783071E+01  0.58092702445E+02 -0.75567354868E+02  0.12500000000E+03  0.80419002446E+02 0. -1.
</event>
<event>
 4    1  0.1586888E-001  0.1250000E+03  0.7546771E-02  0.1126479E+00
        -11   -1    0    0    0    0  0.00000000000E+00  0.00000000000E+00  0.12500000000E+03  0.12500000000E+03  0.00000000000E+00 0.  1.
         11   -1    0    0    0    0 -0.00000000000E+00 -0.00000000000E+00 -0.12500000000E+03  0.12500000000E+03  0.00000000000E+00 0. -1.
         24    1    1    2    0    0 -0.50384544303E+02 -0.72134734750E+02  0.37626610046E+02  0.12500000000E+03  0.80419002446E+02 0.  1.
        -24    1    1    2    0    0  0.50384544303E+02  0.72134734750E+02 -0.37626610046E+02  0.12500000000E+03  0.80419002446E+02 0. -1.
</event>
<event>
 4    1  0.1586888E-001  0.1250000E+03  0.7546771E-02  0.1126479E+00
        -11   -1    0    0    0    0  0.00000000000E+00  0.00000000000E+00  0.12500000000E+03  0.12500000000E+03  0.00000000000E+00 0.  1.
         11   -1    0    0    0    0 -0.00000000000E+00 -0.00000000000E+00 -0.12500000000E+03  0.12500000000E+03  0.00000000000E+00 0. -1.
         24    1    1    2    0    0 -0.37088250769E+02 -0.43218735184E+02  0.76905049441E+02  0.12500000000E+03  0.80419002446E+02 0.  1.
        -24    1    1    2    0    0  0.37088250769E+02  0.43218735184E+02 -0.76905049441E+02  0.12500000000E+03  0.80419002446E+02 0. -1.
</event>
<event>
 4    1  0.1586888E-001  0.1250000E+03  0.7546771E-02  0.1126479E+00
        -11   -1    0    0    0    0  0.00000000000E+00  0.00000000000E+00  0.12500000000E+03  0.12500000000E+03  0.00000000000E+00 0.  1.
         11   -1    0    0    0    0 -0.00000000000E+00 -0.00000000000E+00 -0.12500000000E+03  0.12500000000E+03  0.00000000000E+00 0. -1.
         24    1    1    2    0    0  0.24566404538E+02 -0.76460519557E+01  0.92172738395E+02  0.12500000000E+03  0.80419002446E+02 0.  0.
        -24    1    1    2    0    0 -0.24566404538E+02  0.76460519557E+01 -0.92172738395E+02  0.12500000000E+03  0.80419002446E+02 0. -1.
</event>
<event>
 4    1  0.1586888E-001  0.1250000E+03  0.7546771E-02  0.1126479E+00
        -11   -1    0    0    0    0  0.00000000000E+00  0.00000000000E+00  0.12500000000E+03  0.12500000000E+03  0.00000000000E+00 0.  1.
         11   -1    0    0    0    0 -0.00000000000E+00 -0.00000000000E+00 -0.12500000000E+03  0.12500000000E+03  0.00000000000E+00 0. -1.
         24    1    1    2    0    0  0.29260729146E+02  0.80746069537E+02  0.42209785949E+02  0.12500000000E+03  0.80419002446E+02 0.  1.
        -24    1    1    2    0    0 -0.29260729146E+02 -0.80746069537E+02 -0.42209785949E+02  0.12500000000E+03  0.80419002446E+02 0. -1.
</event>
<event>
 4    1  0.1586888E-001  0.1250000E+03  0.7546771E-02  0.1126479E+00
        -11   -1    0    0    0    0  0.00000000000E+00  0.00000000000E+00  0.12500000000E+03  0.12500000000E+03  0.00000000000E+00 0.  1.
         11   -1    0    0    0    0 -0.00000000000E+00 -0.00000000000E+00 -0.12500000000E+03  0.12500000000E+03  0.00000000000E+00 0. -1.
         24    1    1    2    0    0  0.39027817911E+02 -0.73994128167E+02  0.46470232101E+02  0.12500000000E+03  0.80419002446E+02 0.  1.
        -24    1    1    2    0    0 -0.39027817911E+02  0.73994128167E+02 -0.46470232101E+02  0.12500000000E+03  0.80419002446E+02 0. -1.
</event>
<event>
 4    1  0.1586888E-001  0.1250000E+03  0.7546771E-02  0.1126479E+00
        -11   -1    0    0    0    0  0.00000000000E+00  0.00000000000E+00  0.12500000000E+03  0.12500000000E+03  0.00000000000E+00 0.  1.
         11   -1    0    0    0    0 -0.00000000000E+00 -0.00000000000E+00 -0.12500000000E+03  0.12500000000E+03  0.00000000000E+00 0. -1.
         24    1    1    2    0    0  0.26812478398E+01 -0.19900627237E+02  0.93565805673E+02  0.12500000000E+03  0.80419002446E+02 0.  1.
        -24    1    1    2    0    0 -0.26812478398E+01  0.19900627237E+02 -0.93565805673E+02  0.12500000000E+03  0.80419002446E+02 0. -1.
</event>
<event>
 4    1  0.1586888E-001  0.1250000E+03  0.7546771E-02  0.1126479E+00
        -11   -1    0    0    0    0  0.00000000000E+00  0.00000000000E+00  0.12500000000E+03  0.12500000000E+03  0.00000000000E+00 0.  1.
         11   -1    0    0    0    0 -0.00000000000E+00 -0.00000000000E+00 -0.12500000000E+03  0.12500000000E+03  0.00000000000E+00 0. -1.
         24    1    1    2    0    0 -0.33073945871E+02 -0.74534688321E+02  0.50084712108E+02  0.12500000000E+03  0.80419002446E+02 0.  1.
        -24    1    1    2    0    0  0.33073945871E+02  0.74534688321E+02 -0.50084712108E+02  0.12500000000E+03  0.80419002446E+02 0. -1.
</event>
<event>
 4    1  0.1586888E-001  0.1250000E+03  0.7546771E-02  0.1126479E+00
        -11   -1    0    0    0    0  0.00000000000E+00  0.00000000000E+00  0.12500000000E+03  0.12500000000E+03  0.00000000000E+00 0.  1.
         11   -1    0    0    0    0 -0.00000000000E+00 -0.00000000000E+00 -0.12500000000E+03  0.12500000000E+03  0.00000000000E+00 0. -1.
         24    1    1    2    0    0 -0.43476578528E+02  0.15896899339E+02  0.83754759605E+02  0.12500000000E+03  0.80419002446E+02 0.  1.
        -24    1    1    2    0    0  0.43476578528E+02 -0.15896899339E+02 -0.83754759605E+02  0.12500000000E+03  0.80419002446E+02 0. -1.
</event>
<event>
 4    1  0.1586888E-001  0.1250000E+03  0.7546771E-02  0.1126479E+00
        -11   -1    0    0    0    0  0.00000000000E+00  0.00000000000E+00  0.12500000000E+03  0.12500000000E+03  0.00000000000E+00 0.  1.
         11   -1    0    0    0    0 -0.00000000000E+00 -0.00000000000E+00 -0.12500000000E+03  0.12500000000E+03  0.00000000000E+00 0. -1.
         24    1    1    2    0    0 -0.66906352514E+01  0.38939946541E+02  0.87159050069E+02  0.12500000000E+03  0.80419002446E+02 0.  1.
        -24    1    1    2    0    0  0.66906352514E+01 -0.38939946541E+02 -0.87159050069E+02  0.12500000000E+03  0.80419002446E+02 0. -1.
</event>
<event>
 4    1  0.1586888E-001  0.1250000E+03  0.7546771E-02  0.1126479E+00
        -11   -1    0    0    0    0  0.00000000000E+00  0.00000000000E+00  0.12500000000E+03  0.12500000000E+03  0.00000000000E+00 0.  1.
         11   -1    0    0    0    0 -0.00000000000E+00 -0.00000000000E+00 -0.12500000000E+03  0.12500000000E+03  0.00000000000E+00 0. -1.
         24    1    1    2    0    0 -0.26103041877E+02  0.31464310897E+02  0.86524056714E+02  0.12500000000E+03  0.80419002446E+02 0.  1.
        -24    1    1    2    0    0  0.26103041877E+02 -0.31464310897E+02 -0.86524056714E+02  0.12500000000E+03  0.80419002446E+02 0. -1.
</event>
<event>
 4    1  0.1586888E-001  0.1250000E+03  0.7546771E-02  0.1126479E+00
        -11   -1    0    0    0    0  0.00000000000E+00  0.00000000000E+00  0.12500000000E+03  0.12500000000E+03  0.00000000000E+00 0.  1.
         11   -1    0    0    0    0 -0.00000000000E+00 -0.00000000000E+00 -0.12500000000E+03  0.12500000000E+03  0.00000000000E+00 0. -1.
         24    1    1    2    0    0 -0.53418627174E+02  0.37593544583E+02  0.69935396775E+02  0.12500000000E+03  0.80419002446E+02 0. -1.
        -24    1    1    2    0    0  0.53418627174E+02 -0.37593544583E+02 -0.69935396775E+02  0.12500000000E+03  0.80419002446E+02 0.  1.
</event>
<event>
 4    1  0.1586888E-001  0.1250000E+03  0.7546771E-02  0.1126479E+00
        -11   -1    0    0    0    0  0.00000000000E+00  0.00000000000E+00  0.12500000000E+03  0.12500000000E+03  0.00000000000E+00 0.  1.
         11   -1    0    0    0    0 -0.00000000000E+00 -0.00000000000E+00 -0.12500000000E+03  0.12500000000E+03  0.00000000000E+00 0. -1.
         24    1    1    2    0    0 -0.24496558418E+02 -0.53513921876E+01  0.92352938626E+02  0.12500000000E+03  0.80419002446E+02 0.  1.
        -24    1    1    2    0    0  0.24496558418E+02  0.53513921876E+01 -0.92352938626E+02  0.12500000000E+03  0.80419002446E+02 0. -1.
</event>
<event>
 4    1  0.1586888E-001  0.1250000E+03  0.7546771E-02  0.1126479E+00
        -11   -1    0    0    0    0  0.00000000000E+00  0.00000000000E+00  0.12500000000E+03  0.12500000000E+03  0.00000000000E+00 0.  1.
         11   -1    0    0    0    0 -0.00000000000E+00 -0.00000000000E+00 -0.12500000000E+03  0.12500000000E+03  0.00000000000E+00 0. -1.
         24    1    1    2    0    0 -0.25192681043E+02 -0.92209085714E+02 -0.45384335664E+01  0.12500000000E+03  0.80419002446E+02 0.  1.
        -24    1    1    2    0    0  0.25192681043E+02  0.92209085714E+02  0.45384335664E+01  0.12500000000E+03  0.80419002446E+02 0. -1.
</event>
<event>
 4    1  0.1586888E-001  0.1250000E+03  0.7546771E-02  0.1126479E+00
        -11   -1    0    0    0    0  0.00000000000E+00  0.00000000000E+00  0.12500000000E+03  0.12500000000E+03  0.00000000000E+00 0.  1.
         11   -1    0    0    0    0 -0.00000000000E+00 -0.00000000000E+00 -0.12500000000E+03  0.12500000000E+03  0.00000000000E+00 0. -1.
         24    1    1    2    0    0  0.37760242755E+02  0.47380788365E+02  0.74074347831E+02  0.12500000000E+03  0.80419002446E+02 0.  1.
        -24    1    1    2    0    0 -0.37760242755E+02 -0.47380788365E+02 -0.74074347831E+02  0.12500000000E+03  0.80419002446E+02 0. -1.
</event>
<event>
 4    1  0.1586888E-001  0.1250000E+03  0.7546771E-02  0.1126479E+00
        -11   -1    0    0    0    0  0.00000000000E+00  0.00000000000E+00  0.12500000000E+03  0.12500000000E+03  0.00000000000E+00 0.  1.
         11   -1    0    0    0    0 -0.00000000000E+00 -0.00000000000E+00 -0.12500000000E+03  0.12500000000E+03  0.00000000000E+00 0. -1.
         24    1    1    2    0    0  0.13767380492E+02 -0.50460593671E+01  0.94566276044E+02  0.12500000000E+03  0.80419002446E+02 0.  0.
        -24    1    1    2    0    0 -0.13767380492E+02  0.50460593671E+01 -0.94566276044E+02  0.12500000000E+03  0.80419002446E+02 0. -1.
</event>
<event>
 4    1  0.1586888E-001  0.1250000E+03  0.7546771E-02  0.1126479E+00
        -11   -1    0    0    0    0  0.00000000000E+00  0.00000000000E+00  0.12500000000E+03  0.12500000000E+03  0.00000000000E+00 0.  1.
         11   -1    0    0    0    0 -0.00000000000E+00 -0.00000000000E+00 -0.12500000000E+03  0.12500000000E+03  0.00000000000E+00 0. -1.
         24    1    1    2    0    0  0.16328299400E+02 -0.21454245492E+02  0.91819856429E+02  0.12500000000E+03  0.80419002446E+02 0.  0.
        -24    1    1    2    0    0 -0.16328299400E+02  0.21454245492E+02 -0.91819856429E+02  0.12500000000E+03  0.80419002446E+02 0. -1.
</event>
<event>
 4    1  0.1586888E-001  0.1250000E+03  0.7546771E-02  0.1126479E+00
        -11   -1    0    0    0    0  0.00000000000E+00  0.00000000000E+00  0.12500000000E+03  0.12500000000E+03  0.00000000000E+00 0.  1.
         11   -1    0    0    0    0 -0.00000000000E+00 -0.00000000000E+00 -0.12500000000E+03  0.12500000000E+03  0.00000000000E+00 0. -1.
         24    1    1    2    0    0 -0.62486906600E+02 -0.64844064539E+02  0.32379281080E+02  0.12500000000E+03  0.80419002446E+02 0.  0.
        -24    1    1    2    0    0  0.62486906600E+02  0.64844064539E+02 -0.32379281080E+02  0.12500000000E+03  0.80419002446E+02 0. -1.
</event>
<event>
 4    1  0.1586888E-001  0.1250000E+03  0.7546771E-02  0.1126479E+00
        -11   -1    0    0    0    0  0.00000000000E+00  0.00000000000E+00  0.12500000000E+03  0.12500000000E+03  0.00000000000E+00 0.  1.
         11   -1    0    0    0    0 -0.00000000000E+00 -0.00000000000E+00 -0.12500000000E+03  0.12500000000E+03  0.00000000000E+00 0. -1.
         24    1    1    2    0    0 -0.44983123354E+02 -0.44732964007E+02  0.71646804465E+02  0.12500000000E+03  0.80419002446E+02 0.  1.
        -24    1    1    2    0    0  0.44983123354E+02  0.44732964007E+02 -0.71646804465E+02  0.12500000000E+03  0.80419002446E+02 0. -1.
</event>
<event>
 4    1  0.1586888E-001  0.1250000E+03  0.7546771E-02  0.1126479E+00
        -11   -1    0    0    0    0  0.00000000000E+00  0.00000000000E+00  0.12500000000E+03  0.12500000000E+03  0.00000000000E+00 0.  1.
         11   -1    0    0    0    0 -0.00000000000E+00 -0.00000000000E+00 -0.12500000000E+03  0.12500000000E+03  0.00000000000E+00 0. -1.
         24    1    1    2    0    0  0.71433174080E+02  0.63591086504E+02  0.33555034956E+01  0.12500000000E+03  0.80419002446E+02 0.  1.
        -24    1    1    2    0    0 -0.71433174080E+02 -0.63591086504E+02 -0.33555034956E+01  0.12500000000E+03  0.80419002446E+02 0. -1.
</event>
<event>
 4    1  0.1586888E-001  0.1250000E+03  0.7546771E-02  0.1126479E+00
        -11   -1    0    0    0    0  0.00000000000E+00  0.00000000000E+00  0.12500000000E+03  0.12500000000E+03  0.00000000000E+00 0.  1.
         11   -1    0    0    0    0 -0.00000000000E+00 -0.00000000000E+00 -0.12500000000E+03  0.12500000000E+03  0.00000000000E+00 0. -1.
         24    1    1    2    0    0 -0.39683002852E+02 -0.77542885384E+02  0.39625045824E+02  0.12500000000E+03  0.80419002446E+02 0. -1.
        -24    1    1    2    0    0  0.39683002852E+02  0.77542885384E+02 -0.39625045824E+02  0.12500000000E+03  0.80419002446E+02 0.  1.
</event>
<event>
 4    1  0.1586888E-001  0.1250000E+03  0.7546771E-02  0.1126479E+00
        -11   -1    0    0    0    0  0.00000000000E+00  0.00000000000E+00  0.12500000000E+03  0.12500000000E+03  0.00000000000E+00 0.  1.
         11   -1    0    0    0    0 -0.00000000000E+00 -0.00000000000E+00 -0.12500000000E+03  0.12500000000E+03  0.00000000000E+00 0. -1.
         24    1    1    2    0    0 -0.92623103270E+02  0.98209631049E+01  0.21961180979E+02  0.12500000000E+03  0.80419002446E+02 0.  1.
        -24    1    1    2    0    0  0.92623103270E+02 -0.98209631049E+01 -0.21961180979E+02  0.12500000000E+03  0.80419002446E+02 0.  0.
</event>
<event>
 4    1  0.1586888E-001  0.1250000E+03  0.7546771E-02  0.1126479E+00
        -11   -1    0    0    0    0  0.00000000000E+00  0.00000000000E+00  0.12500000000E+03  0.12500000000E+03  0.00000000000E+00 0.  1.
         11   -1    0    0    0    0 -0.00000000000E+00 -0.00000000000E+00 -0.12500000000E+03  0.12500000000E+03  0.00000000000E+00 0. -1.
         24    1    1    2    0    0  0.42006644843E+01 -0.26979337289E+02  0.91718339622E+02  0.12500000000E+03  0.80419002446E+02 0.  1.
        -24    1    1    2    0    0 -0.42006644843E+01  0.26979337289E+02 -0.91718339622E+02  0.12500000000E+03  0.80419002446E+02 0. -1.
</event>
<event>
 4    1  0.1586888E-001  0.1250000E+03  0.7546771E-02  0.1126479E+00
        -11   -1    0    0    0    0  0.00000000000E+00  0.00000000000E+00  0.12500000000E+03  0.12500000000E+03  0.00000000000E+00 0.  1.
         11   -1    0    0    0    0 -0.00000000000E+00 -0.00000000000E+00 -0.12500000000E+03  0.12500000000E+03  0.00000000000E+00 0. -1.
         24    1    1    2    0    0 -0.44179322933E+02 -0.56550517613E+02  0.63308849528E+02  0.12500000000E+03  0.80419002446E+02 0. -1.
        -24    1    1    2    0    0  0.44179322933E+02  0.56550517613E+02 -0.63308849528E+02  0.12500000000E+03  0.80419002446E+02 0.  0.
</event>
<event>
 4    1  0.1586888E-001  0.1250000E+03  0.7546771E-02  0.1126479E+00
        -11   -1    0    0    0    0  0.00000000000E+00  0.00000000000E+00  0.12500000000E+03  0.12500000000E+03  0.00000000000E+00 0.  1.
         11   -1    0    0    0    0 -0.00000000000E+00 -0.00000000000E+00 -0.12500000000E+03  0.12500000000E+03  0.00000000000E+00 0. -1.
         24    1    1    2    0    0 -0.36489809518E+02 -0.84583926433E+02  0.25919823228E+02  0.12500000000E+03  0.80419002446E+02 0.  1.
        -24    1    1    2    0    0  0.36489809518E+02  0.84583926433E+02 -0.25919823228E+02  0.12500000000E+03  0.80419002446E+02 0. -1.
</event>
<event>
 4    1  0.1586888E-001  0.1250000E+03  0.7546771E-02  0.1126479E+00
        -11   -1    0    0    0    0  0.00000000000E+00  0.00000000000E+00  0.12500000000E+03  0.12500000000E+03  0.00000000000E+00 0.  1.
         11   -1    0    0    0    0 -0.00000000000E+00 -0.00000000000E+00 -0.12500000000E+03  0.12500000000E+03  0.00000000000E+00 0. -1.
         24    1    1    2    0    0  0.10729006486E+02 -0.35061868445E+02  0.88393087097E+02  0.12500000000E+03  0.80419002446E+02 0.  0.
        -24    1    1    2    0    0 -0.10729006486E+02  0.35061868445E+02 -0.88393087097E+02  0.12500000000E+03  0.80419002446E+02 0. -1.
</event>
<event>
 4    1  0.1586888E-001  0.1250000E+03  0.7546771E-02  0.1126479E+00
        -11   -1    0    0    0    0  0.00000000000E+00  0.00000000000E+00  0.12500000000E+03  0.12500000000E+03  0.00000000000E+00 0.  1.
         11   -1    0    0    0    0 -0.00000000000E+00 -0.00000000000E+00 -0.12500000000E+03  0.12500000000E+03  0.00000000000E+00 0. -1.
         24    1    1    2    0    0 -0.43613817794E+02 -0.98156478148E+01  0.84612481355E+02  0.12500000000E+03  0.80419002446E+02 0.  1.
        -24    1    1    2    0    0  0.43613817794E+02  0.98156478148E+01 -0.84612481355E+02  0.12500000000E+03  0.80419002446E+02 0. -1.
</event>
<event>
 4    1  0.1586888E-001  0.1250000E+03  0.7546771E-02  0.1126479E+00
        -11   -1    0    0    0    0  0.00000000000E+00  0.00000000000E+00  0.12500000000E+03  0.12500000000E+03  0.00000000000E+00 0.  1.
         11   -1    0    0    0    0 -0.00000000000E+00 -0.00000000000E+00 -0.12500000000E+03  0.12500000000E+03  0.00000000000E+00 0. -1.
         24    1    1    2    0    0  0.55491091256E+02 -0.75136719990E+02 -0.20808559439E+02  0.12500000000E+03  0.80419002446E+02 0.  0.
        -24    1    1    2    0    0 -0.55491091256E+02  0.75136719990E+02  0.20808559439E+02  0.12500000000E+03  0.80419002446E+02 0.  0.
</event>
<event>
 4    1  0.1586888E-001  0.1250000E+03  0.7546771E-02  0.1126479E+00
        -11   -1    0    0    0    0  0.00000000000E+00  0.00000000000E+00  0.12500000000E+03  0.12500000000E+03  0.00000000000E+00 0.  1.
         11   -1    0    0    0    0 -0.00000000000E+00 -0.00000000000E+00 -0.12500000000E+03  0.12500000000E+03  0.00000000000E+00 0. -1.
         24    1    1    2    0    0  0.94416566246E+02  0.34194447089E+01  0.15218523645E+02  0.12500000000E+03  0.80419002446E+02 0.  1.
        -24    1    1    2    0    0 -0.94416566246E+02 -0.34194447089E+01 -0.15218523645E+02  0.12500000000E+03  0.80419002446E+02 0.  0.
</event>
<event>
 4    1  0.1586888E-001  0.1250000E+03  0.7546771E-02  0.1126479E+00
        -11   -1    0    0    0    0  0.00000000000E+00  0.00000000000E+00  0.12500000000E+03  0.12500000000E+03  0.00000000000E+00 0.  1.
         11   -1    0    0    0    0 -0.00000000000E+00 -0.00000000000E+00 -0.12500000000E+03  0.12500000000E+03  0.00000000000E+00 0. -1.
         24    1    1    2    0    0 -0.12031624859E+02  0.20694711493E+02  0.92653941984E+02  0.12500000000E+03  0.80419002446E+02 0.  1.
        -24    1    1    2    0    0  0.12031624859E+02 -0.20694711493E+02 -0.92653941984E+02  0.12500000000E+03  0.80419002446E+02 0.  0.
</event>
<event>
 4    1  0.1586888E-001  0.1250000E+03  0.7546771E-02  0.1126479E+00
        -11   -1    0    0    0    0  0.00000000000E+00  0.00000000000E+00  0.12500000000E+03  0.12500000000E+03  0.00000000000E+00 0.  1.
         11   -1    0    0    0    0 -0.00000000000E+00 -0.00000000000E+00 -0.12500000000E+03  0.12500000000E+03  0.00000000000E+00 0. -1.
         24    1    1    2    0    0 -0.15871747503E+02 -0.17956253927E+02  0.92646881338E+02  0.12500000000E+03  0.80419002446E+02 0.  1.
        -24    1    1    2    0    0  0.15871747503E+02  0.17956253927E+02 -0.92646881338E+02  0.12500000000E+03  0.80419002446E+02 0. -1.
</event>
<event>
 4    1  0.1586888E-001  0.1250000E+03  0.7546771E-02  0.1126479E+00
        -11   -1    0    0    0    0  0.00000000000E+00  0.00000000000E+00  0.12500000000E+03  0.12500000000E+03  0.00000000000E+00 0.  1.
         11   -1    0    0    0    0 -0.00000000000E+00 -0.00000000000E+00 -0.12500000000E+03  0.12500000000E+03  0.00000000000E+00 0. -1.
         24    1    1    2    0    0  0.12457949994E+02  0.15448492760E+01  0.94869367913E+02  0.12500000000E+03  0.80419002446E+02 0.  1.
        -24    1    1    2    0    0 -0.12457949994E+02 -0.15448492760E+01 -0.94869367913E+02  0.12500000000E+03  0.80419002446E+02 0.  0.
</event>
<event>
 4    1  0.1586888E-001  0.1250000E+03  0.7546771E-02  0.1126479E+00
        -11   -1    0    0    0    0  0.00000000000E+00  0.00000000000E+00  0.12500000000E+03  0.12500000000E+03  0.00000000000E+00 0.  1.
         11   -1    0    0    0    0 -0.00000000000E+00 -0.00000000000E+00 -0.12500000000E+03  0.12500000000E+03  0.00000000000E+00 0. -1.
         24    1    1    2    0    0  0.47473877126E+02 -0.46364532403E+02  0.68951759740E+02  0.12500000000E+03  0.80419002446E+02 0. -1.
        -24    1    1    2    0    0 -0.47473877126E+02  0.46364532403E+02 -0.68951759740E+02  0.12500000000E+03  0.80419002446E+02 0.  0.
</event>
<event>
 4    1  0.1586888E-001  0.1250000E+03  0.7546771E-02  0.1126479E+00
        -11   -1    0    0    0    0  0.00000000000E+00  0.00000000000E+00  0.12500000000E+03  0.12500000000E+03  0.00000000000E+00 0.  1.
         11   -1    0    0    0    0 -0.00000000000E+00 -0.00000000000E+00 -0.12500000000E+03  0.12500000000E+03  0.00000000000E+00 0. -1.
         24    1    1    2    0    0 -0.94846511207E+01 -0.36217393707E+02  0.88068869823E+02  0.12500000000E+03  0.80419002446E+02 0.  1.
        -24    1    1    2    0    0  0.94846511207E+01  0.36217393707E+02 -0.88068869823E+02  0.12500000000E+03  0.80419002446E+02 0. -1.
</event>
<event>
 4    1  0.1586888E-001  0.1250000E+03  0.7546771E-02  0.1126479E+00
        -11   -1    0    0    0    0  0.00000000000E+00  0.00000000000E+00  0.12500000000E+03  0.12500000000E+03  0.00000000000E+00 0.  1.
         11   -1    0    0    0    0 -0.00000000000E+00 -0.00000000000E+00 -0.12500000000E+03  0.12500000000E+03  0.00000000000E+00 0. -1.
         24    1    1    2    0    0 -0.26319159847E+02  0.12853291163E+02  0.91103670491E+02  0.12500000000E+03  0.80419002446E+02 0.  1.
        -24    1    1    2    0    0  0.26319159847E+02 -0.12853291163E+02 -0.91103670491E+02  0.12500000000E+03  0.80419002446E+02 0. -1.
</event>
<event>
 4    1  0.1586888E-001  0.1250000E+03  0.7546771E-02  0.1126479E+00
        -11   -1    0    0    0    0  0.00000000000E+00  0.00000000000E+00  0.12500000000E+03  0.12500000000E+03  0.00000000000E+00 0.  1.
         11   -1    0    0    0    0 -0.00000000000E+00 -0.00000000000E+00 -0.12500000000E+03  0.12500000000E+03  0.00000000000E+00 0. -1.
         24    1    1    2    0    0 -0.43130168168E+02 -0.39699753309E+02  0.75640612284E+02  0.12500000000E+03  0.80419002446E+02 0. -1.
        -24    1    1    2    0    0  0.43130168168E+02  0.39699753309E+02 -0.75640612284E+02  0.12500000000E+03  0.80419002446E+02 0. -1.
</event>
<event>
 4    1  0.1586888E-001  0.1250000E+03  0.7546771E-02  0.1126479E+00
        -11   -1    0    0    0    0  0.00000000000E+00  0.00000000000E+00  0.12500000000E+03  0.12500000000E+03  0.00000000000E+00 0.  1.
         11   -1    0    0    0    0 -0.00000000000E+00 -0.00000000000E+00 -0.12500000000E+03  0.12500000000E+03  0.00000000000E+00 0. -1.
         24    1    1    2    0    0 -0.62259979708E+02  0.73368932391E+01  0.72302482460E+02  0.12500000000E+03  0.80419002446E+02 0.  1.
        -24    1    1    2    0    0  0.62259979708E+02 -0.73368932391E+01 -0.72302482460E+02  0.12500000000E+03  0.80419002446E+02 0. -1.
</event>
<event>
 4    1  0.1586888E-001  0.1250000E+03  0.7546771E-02  0.1126479E+00
        -11   -1    0    0    0    0  0.00000000000E+00  0.00000000000E+00  0.12500000000E+03  0.12500000000E+03  0.00000000000E+00 0.  1.
         11   -1    0    0    0    0 -0.00000000000E+00 -0.00000000000E+00 -0.12500000000E+03  0.12500000000E+03  0.00000000000E+00 0. -1.
         24    1    1    2    0    0  0.41314424936E+02 -0.47140878545E+02  0.72309334859E+02  0.12500000000E+03  0.80419002446E+02 0.  1.
        -24    1    1    2    0    0 -0.41314424936E+02  0.47140878545E+02 -0.72309334859E+02  0.12500000000E+03  0.80419002446E+02 0.  0.
</event>
<event>
 4    1  0.1586888E-001  0.1250000E+03  0.7546771E-02  0.1126479E+00
        -11   -1    0    0    0    0  0.00000000000E+00  0.00000000000E+00  0.12500000000E+03  0.12500000000E+03  0.00000000000E+00 0.  1.
         11   -1    0    0    0    0 -0.00000000000E+00 -0.00000000000E+00 -0.12500000000E+03  0.12500000000E+03  0.00000000000E+00 0. -1.
         24    1    1    2    0    0  0.51428551088E+02  0.32775238590E+02  0.73747351912E+02  0.12500000000E+03  0.80419002446E+02 0.  1.
        -24    1    1    2    0    0 -0.51428551088E+02 -0.32775238590E+02 -0.73747351912E+02  0.12500000000E+03  0.80419002446E+02 0. -1.
</event>
<event>
 4    1  0.1586888E-001  0.1250000E+03  0.7546771E-02  0.1126479E+00
        -11   -1    0    0    0    0  0.00000000000E+00  0.00000000000E+00  0.12500000000E+03  0.12500000000E+03  0.00000000000E+00 0.  1.
         11   -1    0    0    0    0 -0.00000000000E+00 -0.00000000000E+00 -0.12500000000E+03  0.12500000000E+03  0.00000000000E+00 0. -1.
         24    1    1    2    0    0 -0.22826589652E+02 -0.33198586849E+02  0.86801985471E+02  0.12500000000E+03  0.80419002446E+02 0.  1.
        -24    1    1    2    0    0  0.22826589652E+02  0.33198586849E+02 -0.86801985471E+02  0.12500000000E+03  0.80419002446E+02 0. -1.
</event>
<event>
 4    1  0.1586888E-001  0.1250000E+03  0.7546771E-02  0.1126479E+00
        -11   -1    0    0    0    0  0.00000000000E+00  0.00000000000E+00  0.12500000000E+03  0.12500000000E+03  0.00000000000E+00 0.  1.
         11   -1    0    0    0    0 -0.00000000000E+00 -0.00000000000E+00 -0.12500000000E+03  0.12500000000E+03  0.00000000000E+00 0. -1.
         24    1    1    2    0    0  0.45424106936E+01 -0.27397460531E+02  0.91577997943E+02  0.12500000000E+03  0.80419002446E+02 0.  1.
        -24    1    1    2    0    0 -0.45424106936E+01  0.27397460531E+02 -0.91577997943E+02  0.12500000000E+03  0.80419002446E+02 0. -1.
</event>
<event>
 4    1  0.1586888E-001  0.1250000E+03  0.7546771E-02  0.1126479E+00
        -11   -1    0    0    0    0  0.00000000000E+00  0.00000000000E+00  0.12500000000E+03  0.12500000000E+03  0.00000000000E+00 0.  1.
         11   -1    0    0    0    0 -0.00000000000E+00 -0.00000000000E+00 -0.12500000000E+03  0.12500000000E+03  0.00000000000E+00 0. -1.
         24    1    1    2    0    0 -0.45766303829E+02 -0.36761334771E+02 -0.75576674611E+02  0.12500000000E+03  0.80419002446E+02 0. -1.
        -24    1    1    2    0    0  0.45766303829E+02  0.36761334771E+02  0.75576674611E+02  0.12500000000E+03  0.80419002446E+02 0.  1.
</event>
<event>
 4    1  0.1586888E-001  0.1250000E+03  0.7546771E-02  0.1126479E+00
        -11   -1    0    0    0    0  0.00000000000E+00  0.00000000000E+00  0.12500000000E+03  0.12500000000E+03  0.00000000000E+00 0.  1.
         11   -1    0    0    0    0 -0.00000000000E+00 -0.00000000000E+00 -0.12500000000E+03  0.12500000000E+03  0.00000000000E+00 0. -1.
         24    1    1    2    0    0 -0.12885841136E+02 -0.72007520436E+02  0.61698104870E+02  0.12500000000E+03  0.80419002446E+02 0.  1.
        -24    1    1    2    0    0  0.12885841136E+02  0.72007520436E+02 -0.61698104870E+02  0.12500000000E+03  0.80419002446E+02 0. -1.
</event>
<event>
 4    1  0.1586888E-001  0.1250000E+03  0.7546771E-02  0.1126479E+00
        -11   -1    0    0    0    0  0.00000000000E+00  0.00000000000E+00  0.12500000000E+03  0.12500000000E+03  0.00000000000E+00 0.  1.
         11   -1    0    0    0    0 -0.00000000000E+00 -0.00000000000E+00 -0.12500000000E+03  0.12500000000E+03  0.00000000000E+00 0. -1.
         24    1    1    2    0    0  0.12555395278E+02 -0.21097371344E+02  0.92493497163E+02  0.12500000000E+03  0.80419002446E+02 0.  1.
        -24    1    1    2    0    0 -0.12555395278E+02  0.21097371344E+02 -0.92493497163E+02  0.12500000000E+03  0.80419002446E+02 0. -1.
</event>
<event>
 4    1  0.1586888E-001  0.1250000E+03  0.7546771E-02  0.1126479E+00
        -11   -1    0    0    0    0  0.00000000000E+00  0.00000000000E+00  0.12500000000E+03  0.12500000000E+03  0.00000000000E+00 0.  1.
         11   -1    0    0    0    0 -0.00000000000E+00 -0.00000000000E+00 -0.12500000000E+03  0.12500000000E+03  0.00000000000E+00 0. -1.
         24    1    1    2    0    0  0.67543108558E+02  0.47720132764E+01  0.67623519734E+02  0.12500000000E+03  0.80419002446E+02 0.  1.
        -24    1    1    2    0    0 -0.67543108558E+02 -0.47720132764E+01 -0.67623519734E+02  0.12500000000E+03  0.80419002446E+02 0. -1.
</event>
<event>
 4    1  0.1586888E-001  0.1250000E+03  0.7546771E-02  0.1126479E+00
        -11   -1    0    0    0    0  0.00000000000E+00  0.00000000000E+00  0.12500000000E+03  0.12500000000E+03  0.00000000000E+00 0.  1.
         11   -1    0    0    0    0 -0.00000000000E+00 -0.00000000000E+00 -0.12500000000E+03  0.12500000000E+03  0.00000000000E+00 0. -1.
         24    1    1    2    0    0  0.19645691523E+02 -0.42684158632E+02  0.83366020969E+02  0.12500000000E+03  0.80419002446E+02 0.  1.
        -24    1    1    2    0    0 -0.19645691523E+02  0.42684158632E+02 -0.83366020969E+02  0.12500000000E+03  0.80419002446E+02 0. -1.
</event>
<event>
 4    1  0.1586888E-001  0.1250000E+03  0.7546771E-02  0.1126479E+00
        -11   -1    0    0    0    0  0.00000000000E+00  0.00000000000E+00  0.12500000000E+03  0.12500000000E+03  0.00000000000E+00 0.  1.
         11   -1    0    0    0    0 -0.00000000000E+00 -0.00000000000E+00 -0.12500000000E+03  0.12500000000E+03  0.00000000000E+00 0. -1.
         24    1    1    2    0    0 -0.79545814109E+01 -0.52690364719E+02  0.79487320662E+02  0.12500000000E+03  0.80419002446E+02 0. -1.
        -24    1    1    2    0    0  0.79545814109E+01  0.52690364719E+02 -0.79487320662E+02  0.12500000000E+03  0.80419002446E+02 0.  1.
</event>
<event>
 4    1  0.1586888E-001  0.1250000E+03  0.7546771E-02  0.1126479E+00
        -11   -1    0    0    0    0  0.00000000000E+00  0.00000000000E+00  0.12500000000E+03  0.12500000000E+03  0.00000000000E+00 0.  1.
         11   -1    0    0    0    0 -0.00000000000E+00 -0.00000000000E+00 -0.12500000000E+03  0.12500000000E+03  0.00000000000E+00 0. -1.
         24    1    1    2    0    0 -0.49572679890E+02  0.20043396358E+02  0.79363692685E+02  0.12500000000E+03  0.80419002446E+02 0.  1.
        -24    1    1    2    0    0  0.49572679890E+02 -0.20043396358E+02 -0.79363692685E+02  0.12500000000E+03  0.80419002446E+02 0. -1.
</event>
<event>
 4    1  0.1586888E-001  0.1250000E+03  0.7546771E-02  0.1126479E+00
        -11   -1    0    0    0    0  0.00000000000E+00  0.00000000000E+00  0.12500000000E+03  0.12500000000E+03  0.00000000000E+00 0.  1.
         11   -1    0    0    0    0 -0.00000000000E+00 -0.00000000000E+00 -0.12500000000E+03  0.12500000000E+03  0.00000000000E+00 0. -1.
         24    1    1    2    0    0  0.70435110031E+01 -0.33837601701E+02  0.89236706066E+02  0.12500000000E+03  0.80419002446E+02 0.  1.
        -24    1    1    2    0    0 -0.70435110031E+01  0.33837601701E+02 -0.89236706066E+02  0.12500000000E+03  0.80419002446E+02 0. -1.
</event>
<event>
 4    1  0.1586888E-001  0.1250000E+03  0.7546771E-02  0.1126479E+00
        -11   -1    0    0    0    0  0.00000000000E+00  0.00000000000E+00  0.12500000000E+03  0.12500000000E+03  0.00000000000E+00 0.  1.
         11   -1    0    0    0    0 -0.00000000000E+00 -0.00000000000E+00 -0.12500000000E+03  0.12500000000E+03  0.00000000000E+00 0. -1.
         24    1    1    2    0    0  0.32907845804E+02 -0.34689754777E+02  0.82894382462E+02  0.12500000000E+03  0.80419002446E+02 0.  1.
        -24    1    1    2    0    0 -0.32907845804E+02  0.34689754777E+02 -0.82894382462E+02  0.12500000000E+03  0.80419002446E+02 0.  1.
</event>
<event>
 4    1  0.1586888E-001  0.1250000E+03  0.7546771E-02  0.1126479E+00
        -11   -1    0    0    0    0  0.00000000000E+00  0.00000000000E+00  0.12500000000E+03  0.12500000000E+03  0.00000000000E+00 0.  1.
         11   -1    0    0    0    0 -0.00000000000E+00 -0.00000000000E+00 -0.12500000000E+03  0.12500000000E+03  0.00000000000E+00 0. -1.
         24    1    1    2    0    0  0.34244471366E+02 -0.36316762732E+02  0.81646757260E+02  0.12500000000E+03  0.80419002446E+02 0.  1.
        -24    1    1    2    0    0 -0.34244471366E+02  0.36316762732E+02 -0.81646757260E+02  0.12500000000E+03  0.80419002446E+02 0. -1.
</event>
<event>
 4    1  0.1586888E-001  0.1250000E+03  0.7546771E-02  0.1126479E+00
        -11   -1    0    0    0    0  0.00000000000E+00  0.00000000000E+00  0.12500000000E+03  0.12500000000E+03  0.00000000000E+00 0.  1.
         11   -1    0    0    0    0 -0.00000000000E+00 -0.00000000000E+00 -0.12500000000E+03  0.12500000000E+03  0.00000000000E+00 0. -1.
         24    1    1    2    0    0  0.43671204274E+02  0.76811145370E+02  0.36751298069E+02  0.12500000000E+03  0.80419002446E+02 0.  1.
        -24    1    1    2    0    0 -0.43671204274E+02 -0.76811145370E+02 -0.36751298069E+02  0.12500000000E+03  0.80419002446E+02 0. -1.
</event>
<event>
 4    1  0.1586888E-001  0.1250000E+03  0.7546771E-02  0.1126479E+00
        -11   -1    0    0    0    0  0.00000000000E+00  0.00000000000E+00  0.12500000000E+03  0.12500000000E+03  0.00000000000E+00 0.  1.
         11   -1    0    0    0    0 -0.00000000000E+00 -0.00000000000E+00 -0.12500000000E+03  0.12500000000E+03  0.00000000000E+00 0. -1.
         24    1    1    2    0    0 -0.40943586047E+02  0.54108302800E+02  0.67481096429E+02  0.12500000000E+03  0.80419002446E+02 0.  1.
        -24    1    1    2    0    0  0.40943586047E+02 -0.54108302800E+02 -0.67481096429E+02  0.12500000000E+03  0.80419002446E+02 0. -1.
</event>
<event>
 4    1  0.1586888E-001  0.1250000E+03  0.7546771E-02  0.1126479E+00
        -11   -1    0    0    0    0  0.00000000000E+00  0.00000000000E+00  0.12500000000E+03  0.12500000000E+03  0.00000000000E+00 0.  1.
         11   -1    0    0    0    0 -0.00000000000E+00 -0.00000000000E+00 -0.12500000000E+03  0.12500000000E+03  0.00000000000E+00 0. -1.
         24    1    1    2    0    0  0.82243136125E+02  0.33166075230E+02  0.35970294130E+02  0.12500000000E+03  0.80419002446E+02 0.  1.
        -24    1    1    2    0    0 -0.82243136125E+02 -0.33166075230E+02 -0.35970294130E+02  0.12500000000E+03  0.80419002446E+02 0. -1.
</event>
<event>
 4    1  0.1586888E-001  0.1250000E+03  0.7546771E-02  0.1126479E+00
        -11   -1    0    0    0    0  0.00000000000E+00  0.00000000000E+00  0.12500000000E+03  0.12500000000E+03  0.00000000000E+00 0.  1.
         11   -1    0    0    0    0 -0.00000000000E+00 -0.00000000000E+00 -0.12500000000E+03  0.12500000000E+03  0.00000000000E+00 0. -1.
         24    1    1    2    0    0  0.42129941094E+02  0.35710370441E+02  0.78151273515E+02  0.12500000000E+03  0.80419002446E+02 0.  1.
        -24    1    1    2    0    0 -0.42129941094E+02 -0.35710370441E+02 -0.78151273515E+02  0.12500000000E+03  0.80419002446E+02 0. -1.
</event>
<event>
 4    1  0.1586888E-001  0.1250000E+03  0.7546771E-02  0.1126479E+00
        -11   -1    0    0    0    0  0.00000000000E+00  0.00000000000E+00  0.12500000000E+03  0.12500000000E+03  0.00000000000E+00 0.  1.
         11   -1    0    0    0    0 -0.00000000000E+00 -0.00000000000E+00 -0.12500000000E+03  0.12500000000E+03  0.00000000000E+00 0. -1.
         24    1    1    2    0    0 -0.42213429636E+02  0.23022666061E+02  0.82739151866E+02  0.12500000000E+03  0.80419002446E+02 0.  1.
        -24    1    1    2    0    0  0.42213429636E+02 -0.23022666061E+02 -0.82739151866E+02  0.12500000000E+03  0.80419002446E+02 0. -1.
</event>
<event>
 4    1  0.1586888E-001  0.1250000E+03  0.7546771E-02  0.1126479E+00
        -11   -1    0    0    0    0  0.00000000000E+00  0.00000000000E+00  0.12500000000E+03  0.12500000000E+03  0.00000000000E+00 0.  1.
         11   -1    0    0    0    0 -0.00000000000E+00 -0.00000000000E+00 -0.12500000000E+03  0.12500000000E+03  0.00000000000E+00 0. -1.
         24    1    1    2    0    0 -0.43896814702E+02  0.26907389591E+02  0.80665023957E+02  0.12500000000E+03  0.80419002446E+02 0.  1.
        -24    1    1    2    0    0  0.43896814702E+02 -0.26907389591E+02 -0.80665023957E+02  0.12500000000E+03  0.80419002446E+02 0. -1.
</event>
<event>
 4    1  0.1586888E-001  0.1250000E+03  0.7546771E-02  0.1126479E+00
        -11   -1    0    0    0    0  0.00000000000E+00  0.00000000000E+00  0.12500000000E+03  0.12500000000E+03  0.00000000000E+00 0.  1.
         11   -1    0    0    0    0 -0.00000000000E+00 -0.00000000000E+00 -0.12500000000E+03  0.12500000000E+03  0.00000000000E+00 0. -1.
         24    1    1    2    0    0  0.22749997457E+02  0.39031819704E+02  0.84360765240E+02  0.12500000000E+03  0.80419002446E+02 0.  1.
        -24    1    1    2    0    0 -0.22749997457E+02 -0.39031819704E+02 -0.84360765240E+02  0.12500000000E+03  0.80419002446E+02 0.  1.
</event>
<event>
 4    1  0.1586888E-001  0.1250000E+03  0.7546771E-02  0.1126479E+00
        -11   -1    0    0    0    0  0.00000000000E+00  0.00000000000E+00  0.12500000000E+03  0.12500000000E+03  0.00000000000E+00 0.  1.
         11   -1    0    0    0    0 -0.00000000000E+00 -0.00000000000E+00 -0.12500000000E+03  0.12500000000E+03  0.00000000000E+00 0. -1.
         24    1    1    2    0    0 -0.25677372934E+02 -0.35896298624E+02  0.84911202500E+02  0.12500000000E+03  0.80419002446E+02 0.  0.
        -24    1    1    2    0    0  0.25677372934E+02  0.35896298624E+02 -0.84911202500E+02  0.12500000000E+03  0.80419002446E+02 0.  0.
</event>
<event>
 4    1  0.1586888E-001  0.1250000E+03  0.7546771E-02  0.1126479E+00
        -11   -1    0    0    0    0  0.00000000000E+00  0.00000000000E+00  0.12500000000E+03  0.12500000000E+03  0.00000000000E+00 0.  1.
         11   -1    0    0    0    0 -0.00000000000E+00 -0.00000000000E+00 -0.12500000000E+03  0.12500000000E+03  0.00000000000E+00 0. -1.
         24    1    1    2    0    0  0.30893833851E+01  0.47916928549E+02  0.82778063002E+02  0.12500000000E+03  0.80419002446E+02 0. -1.
        -24    1    1    2    0    0 -0.30893833851E+01 -0.47916928549E+02 -0.82778063002E+02  0.12500000000E+03  0.80419002446E+02 0.  1.
</event>
<event>
 4    1  0.1586888E-001  0.1250000E+03  0.7546771E-02  0.1126479E+00
        -11   -1    0    0    0    0  0.00000000000E+00  0.00000000000E+00  0.12500000000E+03  0.12500000000E+03  0.00000000000E+00 0.  1.
         11   -1    0    0    0    0 -0.00000000000E+00 -0.00000000000E+00 -0.12500000000E+03  0.12500000000E+03  0.00000000000E+00 0. -1.
         24    1    1    2    0    0  0.90012849896E+01 -0.65821794666E+02  0.68878532658E+02  0.12500000000E+03  0.80419002446E+02 0.  1.
        -24    1    1    2    0    0 -0.90012849896E+01  0.65821794666E+02 -0.68878532658E+02  0.12500000000E+03  0.80419002446E+02 0. -1.
</event>
<event>
 4    1  0.1586888E-001  0.1250000E+03  0.7546771E-02  0.1126479E+00
        -11   -1    0    0    0    0  0.00000000000E+00  0.00000000000E+00  0.12500000000E+03  0.12500000000E+03  0.00000000000E+00 0.  1.
         11   -1    0    0    0    0 -0.00000000000E+00 -0.00000000000E+00 -0.12500000000E+03  0.12500000000E+03  0.00000000000E+00 0. -1.
         24    1    1    2    0    0 -0.70299097571E+02 -0.90862566269E+01  0.64290441489E+02  0.12500000000E+03  0.80419002446E+02 0.  1.
        -24    1    1    2    0    0  0.70299097571E+02  0.90862566269E+01 -0.64290441489E+02  0.12500000000E+03  0.80419002446E+02 0. -1.
</event>
<event>
 4    1  0.1586888E-001  0.1250000E+03  0.7546771E-02  0.1126479E+00
        -11   -1    0    0    0    0  0.00000000000E+00  0.00000000000E+00  0.12500000000E+03  0.12500000000E+03  0.00000000000E+00 0.  1.
         11   -1    0    0    0    0 -0.00000000000E+00 -0.00000000000E+00 -0.12500000000E+03  0.12500000000E+03  0.00000000000E+00 0. -1.
         24    1    1    2    0    0 -0.33199838040E+02 -0.34915138738E+02  0.82683056829E+02  0.12500000000E+03  0.80419002446E+02 0.  0.
        -24    1    1    2    0    0  0.33199838040E+02  0.34915138738E+02 -0.82683056829E+02  0.12500000000E+03  0.80419002446E+02 0.  0.
</event>
<event>
 4    1  0.1586888E-001  0.1250000E+03  0.7546771E-02  0.1126479E+00
        -11   -1    0    0    0    0  0.00000000000E+00  0.00000000000E+00  0.12500000000E+03  0.12500000000E+03  0.00000000000E+00 0.  1.
         11   -1    0    0    0    0 -0.00000000000E+00 -0.00000000000E+00 -0.12500000000E+03  0.12500000000E+03  0.00000000000E+00 0. -1.
         24    1    1    2    0    0  0.36032864434E+02  0.28883410849E+02  0.83816259187E+02  0.12500000000E+03  0.80419002446E+02 0.  1.
        -24    1    1    2    0    0 -0.36032864434E+02 -0.28883410849E+02 -0.83816259187E+02  0.12500000000E+03  0.80419002446E+02 0. -1.
</event>
<event>
 4    1  0.1586888E-001  0.1250000E+03  0.7546771E-02  0.1126479E+00
        -11   -1    0    0    0    0  0.00000000000E+00  0.00000000000E+00  0.12500000000E+03  0.12500000000E+03  0.00000000000E+00 0.  1.
         11   -1    0    0    0    0 -0.00000000000E+00 -0.00000000000E+00 -0.12500000000E+03  0.12500000000E+03  0.00000000000E+00 0. -1.
         24    1    1    2    0    0 -0.78592474858E+01  0.78294305620E+02  0.54461160308E+02  0.12500000000E+03  0.80419002446E+02 0.  1.
        -24    1    1    2    0    0  0.78592474858E+01 -0.78294305620E+02 -0.54461160308E+02  0.12500000000E+03  0.80419002446E+02 0. -1.
</event>
<event>
 4    1  0.1586888E-001  0.1250000E+03  0.7546771E-02  0.1126479E+00
        -11   -1    0    0    0    0  0.00000000000E+00  0.00000000000E+00  0.12500000000E+03  0.12500000000E+03  0.00000000000E+00 0.  1.
         11   -1    0    0    0    0 -0.00000000000E+00 -0.00000000000E+00 -0.12500000000E+03  0.12500000000E+03  0.00000000000E+00 0. -1.
         24    1    1    2    0    0 -0.20564275782E+02 -0.27941509102E+02  0.89186135000E+02  0.12500000000E+03  0.80419002446E+02 0.  1.
        -24    1    1    2    0    0  0.20564275782E+02  0.27941509102E+02 -0.89186135000E+02  0.12500000000E+03  0.80419002446E+02 0. -1.
</event>
<event>
 4    1  0.1586888E-001  0.1250000E+03  0.7546771E-02  0.1126479E+00
        -11   -1    0    0    0    0  0.00000000000E+00  0.00000000000E+00  0.12500000000E+03  0.12500000000E+03  0.00000000000E+00 0.  1.
         11   -1    0    0    0    0 -0.00000000000E+00 -0.00000000000E+00 -0.12500000000E+03  0.12500000000E+03  0.00000000000E+00 0. -1.
         24    1    1    2    0    0 -0.25697057617E+02  0.31906323688E+02  0.86483708201E+02  0.12500000000E+03  0.80419002446E+02 0.  1.
        -24    1    1    2    0    0  0.25697057617E+02 -0.31906323688E+02 -0.86483708201E+02  0.12500000000E+03  0.80419002446E+02 0. -1.
</event>
<event>
 4    1  0.1586888E-001  0.1250000E+03  0.7546771E-02  0.1126479E+00
        -11   -1    0    0    0    0  0.00000000000E+00  0.00000000000E+00  0.12500000000E+03  0.12500000000E+03  0.00000000000E+00 0.  1.
         11   -1    0    0    0    0 -0.00000000000E+00 -0.00000000000E+00 -0.12500000000E+03  0.12500000000E+03  0.00000000000E+00 0. -1.
         24    1    1    2    0    0  0.48008224256E+02 -0.67522233905E+02  0.47893030578E+02  0.12500000000E+03  0.80419002446E+02 0.  1.
        -24    1    1    2    0    0 -0.48008224256E+02  0.67522233905E+02 -0.47893030578E+02  0.12500000000E+03  0.80419002446E+02 0. -1.
</event>
<event>
 4    1  0.1586888E-001  0.1250000E+03  0.7546771E-02  0.1126479E+00
        -11   -1    0    0    0    0  0.00000000000E+00  0.00000000000E+00  0.12500000000E+03  0.12500000000E+03  0.00000000000E+00 0.  1.
         11   -1    0    0    0    0 -0.00000000000E+00 -0.00000000000E+00 -0.12500000000E+03  0.12500000000E+03  0.00000000000E+00 0. -1.
         24    1    1    2    0    0 -0.41030474924E+02  0.30088126443E+02  0.81049298703E+02  0.12500000000E+03  0.80419002446E+02 0.  1.
        -24    1    1    2    0    0  0.41030474924E+02 -0.30088126443E+02 -0.81049298703E+02  0.12500000000E+03  0.80419002446E+02 0. -1.
</event>
<event>
 4    1  0.1586888E-001  0.1250000E+03  0.7546771E-02  0.1126479E+00
        -11   -1    0    0    0    0  0.00000000000E+00  0.00000000000E+00  0.12500000000E+03  0.12500000000E+03  0.00000000000E+00 0.  1.
         11   -1    0    0    0    0 -0.00000000000E+00 -0.00000000000E+00 -0.12500000000E+03  0.12500000000E+03  0.00000000000E+00 0. -1.
         24    1    1    2    0    0 -0.80928403313E+02 -0.24861781786E+02  0.44612435365E+02  0.12500000000E+03  0.80419002446E+02 0.  0.
        -24    1    1    2    0    0  0.80928403313E+02  0.24861781786E+02 -0.44612435365E+02  0.12500000000E+03  0.80419002446E+02 0. -1.
</event>
<event>
 4    1  0.1586888E-001  0.1250000E+03  0.7546771E-02  0.1126479E+00
        -11   -1    0    0    0    0  0.00000000000E+00  0.00000000000E+00  0.12500000000E+03  0.12500000000E+03  0.00000000000E+00 0.  1.
         11   -1    0    0    0    0 -0.00000000000E+00 -0.00000000000E+00 -0.12500000000E+03  0.12500000000E+03  0.00000000000E+00 0. -1.
         24    1    1    2    0    0 -0.22506313500E+02  0.24674963034E+01  0.92979359861E+02  0.12500000000E+03  0.80419002446E+02 0.  1.
        -24    1    1    2    0    0  0.22506313500E+02 -0.24674963034E+01 -0.92979359861E+02  0.12500000000E+03  0.80419002446E+02 0. -1.
</event>
<event>
 4    1  0.1586888E-001  0.1250000E+03  0.7546771E-02  0.1126479E+00
        -11   -1    0    0    0    0  0.00000000000E+00  0.00000000000E+00  0.12500000000E+03  0.12500000000E+03  0.00000000000E+00 0.  1.
         11   -1    0    0    0    0 -0.00000000000E+00 -0.00000000000E+00 -0.12500000000E+03  0.12500000000E+03  0.00000000000E+00 0. -1.
         24    1    1    2    0    0 -0.77889530706E+02  0.26851218408E+02 -0.48682821633E+02  0.12500000000E+03  0.80419002446E+02 0.  0.
        -24    1    1    2    0    0  0.77889530706E+02 -0.26851218408E+02  0.48682821633E+02  0.12500000000E+03  0.80419002446E+02 0.  0.
</event>
<event>
 4    1  0.1586888E-001  0.1250000E+03  0.7546771E-02  0.1126479E+00
        -11   -1    0    0    0    0  0.00000000000E+00  0.00000000000E+00  0.12500000000E+03  0.12500000000E+03  0.00000000000E+00 0.  1.
         11   -1    0    0    0    0 -0.00000000000E+00 -0.00000000000E+00 -0.12500000000E+03  0.12500000000E+03  0.00000000000E+00 0. -1.
         24    1    1    2    0    0 -0.78798386651E+02 -0.18909888408E+02  0.50902008086E+02  0.12500000000E+03  0.80419002446E+02 0.  1.
        -24    1    1    2    0    0  0.78798386651E+02  0.18909888408E+02 -0.50902008086E+02  0.12500000000E+03  0.80419002446E+02 0. -1.
</event>
<event>
 4    1  0.1586888E-001  0.1250000E+03  0.7546771E-02  0.1126479E+00
        -11   -1    0    0    0    0  0.00000000000E+00  0.00000000000E+00  0.12500000000E+03  0.12500000000E+03  0.00000000000E+00 0.  1.
         11   -1    0    0    0    0 -0.00000000000E+00 -0.00000000000E+00 -0.12500000000E+03  0.12500000000E+03  0.00000000000E+00 0. -1.
         24    1    1    2    0    0  0.80249102400E+02 -0.49297223638E+02  0.16960228512E+02  0.12500000000E+03  0.80419002446E+02 0. -1.
        -24    1    1    2    0    0 -0.80249102400E+02  0.49297223638E+02 -0.16960228512E+02  0.12500000000E+03  0.80419002446E+02 0.  1.
</event>
<event>
 4    1  0.1586888E-001  0.1250000E+03  0.7546771E-02  0.1126479E+00
        -11   -1    0    0    0    0  0.00000000000E+00  0.00000000000E+00  0.12500000000E+03  0.12500000000E+03  0.00000000000E+00 0.  1.
         11   -1    0    0    0    0 -0.00000000000E+00 -0.00000000000E+00 -0.12500000000E+03  0.12500000000E+03  0.00000000000E+00 0. -1.
         24    1    1    2    0    0 -0.84831945030E+02 -0.44219657149E+02 -0.24386614597E+01  0.12500000000E+03  0.80419002446E+02 0.  1.
        -24    1    1    2    0    0  0.84831945030E+02  0.44219657149E+02  0.24386614597E+01  0.12500000000E+03  0.80419002446E+02 0. -1.
</event>
<event>
 4    1  0.1586888E-001  0.1250000E+03  0.7546771E-02  0.1126479E+00
        -11   -1    0    0    0    0  0.00000000000E+00  0.00000000000E+00  0.12500000000E+03  0.12500000000E+03  0.00000000000E+00 0.  1.
         11   -1    0    0    0    0 -0.00000000000E+00 -0.00000000000E+00 -0.12500000000E+03  0.12500000000E+03  0.00000000000E+00 0. -1.
         24    1    1    2    0    0  0.34066769393E+02 -0.32354034640E+02  0.83369393132E+02  0.12500000000E+03  0.80419002446E+02 0.  0.
        -24    1    1    2    0    0 -0.34066769393E+02  0.32354034640E+02 -0.83369393132E+02  0.12500000000E+03  0.80419002446E+02 0.  0.
</event>
<event>
 4    1  0.1586888E-001  0.1250000E+03  0.7546771E-02  0.1126479E+00
        -11   -1    0    0    0    0  0.00000000000E+00  0.00000000000E+00  0.12500000000E+03  0.12500000000E+03  0.00000000000E+00 0.  1.
         11   -1    0    0    0    0 -0.00000000000E+00 -0.00000000000E+00 -0.12500000000E+03  0.12500000000E+03  0.00000000000E+00 0. -1.
         24    1    1    2    0    0  0.45892924829E+02  0.66419833539E+02  0.51381214554E+02  0.12500000000E+03  0.80419002446E+02 0.  0.
        -24    1    1    2    0    0 -0.45892924829E+02 -0.66419833539E+02 -0.51381214554E+02  0.12500000000E+03  0.80419002446E+02 0. -1.
</event>
<event>
 4    1  0.1586888E-001  0.1250000E+03  0.7546771E-02  0.1126479E+00
        -11   -1    0    0    0    0  0.00000000000E+00  0.00000000000E+00  0.12500000000E+03  0.12500000000E+03  0.00000000000E+00 0.  1.
         11   -1    0    0    0    0 -0.00000000000E+00 -0.00000000000E+00 -0.12500000000E+03  0.12500000000E+03  0.00000000000E+00 0. -1.
         24    1    1    2    0    0  0.93318176075E+02  0.21197551973E+02 -0.40724687693E+00  0.12500000000E+03  0.80419002446E+02 0. -1.
        -24    1    1    2    0    0 -0.93318176075E+02 -0.21197551973E+02  0.40724687693E+00  0.12500000000E+03  0.80419002446E+02 0.  1.
</event>
<event>
 4    1  0.1586888E-001  0.1250000E+03  0.7546771E-02  0.1126479E+00
        -11   -1    0    0    0    0  0.00000000000E+00  0.00000000000E+00  0.12500000000E+03  0.12500000000E+03  0.00000000000E+00 0.  1.
         11   -1    0    0    0    0 -0.00000000000E+00 -0.00000000000E+00 -0.12500000000E+03  0.12500000000E+03  0.00000000000E+00 0. -1.
         24    1    1    2    0    0  0.58865329216E+02  0.65930561427E+02  0.36685393984E+02  0.12500000000E+03  0.80419002446E+02 0.  1.
        -24    1    1    2    0    0 -0.58865329216E+02 -0.65930561427E+02 -0.36685393984E+02  0.12500000000E+03  0.80419002446E+02 0. -1.
</event>
<event>
 4    1  0.1586888E-001  0.1250000E+03  0.7546771E-02  0.1126479E+00
        -11   -1    0    0    0    0  0.00000000000E+00  0.00000000000E+00  0.12500000000E+03  0.12500000000E+03  0.00000000000E+00 0.  1.
         11   -1    0    0    0    0 -0.00000000000E+00 -0.00000000000E+00 -0.12500000000E+03  0.12500000000E+03  0.00000000000E+00 0. -1.
         24    1    1    2    0    0  0.85894369121E+01 -0.34900934075E+02  0.88690080730E+02  0.12500000000E+03  0.80419002446E+02 0.  1.
        -24    1    1    2    0    0 -0.85894369121E+01  0.34900934075E+02 -0.88690080730E+02  0.12500000000E+03  0.80419002446E+02 0. -1.
</event>
<event>
 4    1  0.1586888E-001  0.1250000E+03  0.7546771E-02  0.1126479E+00
        -11   -1    0    0    0    0  0.00000000000E+00  0.00000000000E+00  0.12500000000E+03  0.12500000000E+03  0.00000000000E+00 0.  1.
         11   -1    0    0    0    0 -0.00000000000E+00 -0.00000000000E+00 -0.12500000000E+03  0.12500000000E+03  0.00000000000E+00 0. -1.
         24    1    1    2    0    0  0.30629563024E+02 -0.25752991411E+02  0.86927540791E+02  0.12500000000E+03  0.80419002446E+02 0.  1.
        -24    1    1    2    0    0 -0.30629563024E+02  0.25752991411E+02 -0.86927540791E+02  0.12500000000E+03  0.80419002446E+02 0. -1.
</event>
<event>
 4    1  0.1586888E-001  0.1250000E+03  0.7546771E-02  0.1126479E+00
        -11   -1    0    0    0    0  0.00000000000E+00  0.00000000000E+00  0.12500000000E+03  0.12500000000E+03  0.00000000000E+00 0.  1.
         11   -1    0    0    0    0 -0.00000000000E+00 -0.00000000000E+00 -0.12500000000E+03  0.12500000000E+03  0.00000000000E+00 0. -1.
         24    1    1    2    0    0  0.92867998635E+02 -0.16322418038E+02 -0.16336999253E+02  0.12500000000E+03  0.80419002446E+02 0. -1.
        -24    1    1    2    0    0 -0.92867998635E+02  0.16322418038E+02  0.16336999253E+02  0.12500000000E+03  0.80419002446E+02 0.  1.
</event>
<event>
 4    1  0.1586888E-001  0.1250000E+03  0.7546771E-02  0.1126479E+00
        -11   -1    0    0    0    0  0.00000000000E+00  0.00000000000E+00  0.12500000000E+03  0.12500000000E+03  0.00000000000E+00 0.  1.
         11   -1    0    0    0    0 -0.00000000000E+00 -0.00000000000E+00 -0.12500000000E+03  0.12500000000E+03  0.00000000000E+00 0. -1.
         24    1    1    2    0    0  0.28993368181E+02 -0.44988360891E+02  0.79329792837E+02  0.12500000000E+03  0.80419002446E+02 0.  1.
        -24    1    1    2    0    0 -0.28993368181E+02  0.44988360891E+02 -0.79329792837E+02  0.12500000000E+03  0.80419002446E+02 0. -1.
</event>
<event>
 4    1  0.1586888E-001  0.1250000E+03  0.7546771E-02  0.1126479E+00
        -11   -1    0    0    0    0  0.00000000000E+00  0.00000000000E+00  0.12500000000E+03  0.12500000000E+03  0.00000000000E+00 0.  1.
         11   -1    0    0    0    0 -0.00000000000E+00 -0.00000000000E+00 -0.12500000000E+03  0.12500000000E+03  0.00000000000E+00 0. -1.
         24    1    1    2    0    0  0.18721228037E+02 -0.32984662979E+00  0.93846634823E+02  0.12500000000E+03  0.80419002446E+02 0.  1.
        -24    1    1    2    0    0 -0.18721228037E+02  0.32984662979E+00 -0.93846634823E+02  0.12500000000E+03  0.80419002446E+02 0. -1.
</event>
<event>
 4    1  0.1586888E-001  0.1250000E+03  0.7546771E-02  0.1126479E+00
        -11   -1    0    0    0    0  0.00000000000E+00  0.00000000000E+00  0.12500000000E+03  0.12500000000E+03  0.00000000000E+00 0.  1.
         11   -1    0    0    0    0 -0.00000000000E+00 -0.00000000000E+00 -0.12500000000E+03  0.12500000000E+03  0.00000000000E+00 0. -1.
         24    1    1    2    0    0 -0.12457230147E+02 -0.53635843464E+02  0.78267475739E+02  0.12500000000E+03  0.80419002446E+02 0.  0.
        -24    1    1    2    0    0  0.12457230147E+02  0.53635843464E+02 -0.78267475739E+02  0.12500000000E+03  0.80419002446E+02 0.  1.
</event>
<event>
 4    1  0.1586888E-001  0.1250000E+03  0.7546771E-02  0.1126479E+00
        -11   -1    0    0    0    0  0.00000000000E+00  0.00000000000E+00  0.12500000000E+03  0.12500000000E+03  0.00000000000E+00 0.  1.
         11   -1    0    0    0    0 -0.00000000000E+00 -0.00000000000E+00 -0.12500000000E+03  0.12500000000E+03  0.00000000000E+00 0. -1.
         24    1    1    2    0    0 -0.68557845348E+02  0.46197432071E+02  0.48201692469E+02  0.12500000000E+03  0.80419002446E+02 0.  1.
        -24    1    1    2    0    0  0.68557845348E+02 -0.46197432071E+02 -0.48201692469E+02  0.12500000000E+03  0.80419002446E+02 0. -1.
</event>
<event>
 4    1  0.1586888E-001  0.1250000E+03  0.7546771E-02  0.1126479E+00
        -11   -1    0    0    0    0  0.00000000000E+00  0.00000000000E+00  0.12500000000E+03  0.12500000000E+03  0.00000000000E+00 0.  1.
         11   -1    0    0    0    0 -0.00000000000E+00 -0.00000000000E+00 -0.12500000000E+03  0.12500000000E+03  0.00000000000E+00 0. -1.
         24    1    1    2    0    0  0.46561651606E+02 -0.44113695487E+02  0.71019564317E+02  0.12500000000E+03  0.80419002446E+02 0.  0.
        -24    1    1    2    0    0 -0.46561651606E+02  0.44113695487E+02 -0.71019564317E+02  0.12500000000E+03  0.80419002446E+02 0. -1.
</event>
<event>
 4    1  0.1586888E-001  0.1250000E+03  0.7546771E-02  0.1126479E+00
        -11   -1    0    0    0    0  0.00000000000E+00  0.00000000000E+00  0.12500000000E+03  0.12500000000E+03  0.00000000000E+00 0.  1.
         11   -1    0    0    0    0 -0.00000000000E+00 -0.00000000000E+00 -0.12500000000E+03  0.12500000000E+03  0.00000000000E+00 0. -1.
         24    1    1    2    0    0  0.28336120870E+02  0.20635433501E+02  0.89045085119E+02  0.12500000000E+03  0.80419002446E+02 0.  1.
        -24    1    1    2    0    0 -0.28336120870E+02 -0.20635433501E+02 -0.89045085119E+02  0.12500000000E+03  0.80419002446E+02 0. -1.
</event>
<event>
 4    1  0.1586888E-001  0.1250000E+03  0.7546771E-02  0.1126479E+00
        -11   -1    0    0    0    0  0.00000000000E+00  0.00000000000E+00  0.12500000000E+03  0.12500000000E+03  0.00000000000E+00 0.  1.
         11   -1    0    0    0    0 -0.00000000000E+00 -0.00000000000E+00 -0.12500000000E+03  0.12500000000E+03  0.00000000000E+00 0. -1.
         24    1    1    2    0    0 -0.22505788257E+02  0.19899710419E+02  0.90858544264E+02  0.12500000000E+03  0.80419002446E+02 0.  1.
        -24    1    1    2    0    0  0.22505788257E+02 -0.19899710419E+02 -0.90858544264E+02  0.12500000000E+03  0.80419002446E+02 0. -1.
</event>
<event>
 4    1  0.1586888E-001  0.1250000E+03  0.7546771E-02  0.1126479E+00
        -11   -1    0    0    0    0  0.00000000000E+00  0.00000000000E+00  0.12500000000E+03  0.12500000000E+03  0.00000000000E+00 0.  1.
         11   -1    0    0    0    0 -0.00000000000E+00 -0.00000000000E+00 -0.12500000000E+03  0.12500000000E+03  0.00000000000E+00 0. -1.
         24    1    1    2    0    0 -0.29597955289E+02 -0.11800137602E+02  0.90235812408E+02  0.12500000000E+03  0.80419002446E+02 0.  0.
        -24    1    1    2    0    0  0.29597955289E+02  0.11800137602E+02 -0.90235812408E+02  0.12500000000E+03  0.80419002446E+02 0.  0.
</event>
<event>
 4    1  0.1586888E-001  0.1250000E+03  0.7546771E-02  0.1126479E+00
        -11   -1    0    0    0    0  0.00000000000E+00  0.00000000000E+00  0.12500000000E+03  0.12500000000E+03  0.00000000000E+00 0.  1.
         11   -1    0    0    0    0 -0.00000000000E+00 -0.00000000000E+00 -0.12500000000E+03  0.12500000000E+03  0.00000000000E+00 0. -1.
         24    1    1    2    0    0 -0.67377636644E+02  0.96732618506E+01 -0.67264151902E+02  0.12500000000E+03  0.80419002446E+02 0. -1.
        -24    1    1    2    0    0  0.67377636644E+02 -0.96732618506E+01  0.67264151902E+02  0.12500000000E+03  0.80419002446E+02 0.  0.
</event>
<event>
 4    1  0.1586888E-001  0.1250000E+03  0.7546771E-02  0.1126479E+00
        -11   -1    0    0    0    0  0.00000000000E+00  0.00000000000E+00  0.12500000000E+03  0.12500000000E+03  0.00000000000E+00 0.  1.
         11   -1    0    0    0    0 -0.00000000000E+00 -0.00000000000E+00 -0.12500000000E+03  0.12500000000E+03  0.00000000000E+00 0. -1.
         24    1    1    2    0    0 -0.49905818043E+02  0.23429352733E+01  0.81619262588E+02  0.12500000000E+03  0.80419002446E+02 0.  1.
        -24    1    1    2    0    0  0.49905818043E+02 -0.23429352733E+01 -0.81619262588E+02  0.12500000000E+03  0.80419002446E+02 0. -1.
</event>
<event>
 4    1  0.1586888E-001  0.1250000E+03  0.7546771E-02  0.1126479E+00
        -11   -1    0    0    0    0  0.00000000000E+00  0.00000000000E+00  0.12500000000E+03  0.12500000000E+03  0.00000000000E+00 0.  1.
         11   -1    0    0    0    0 -0.00000000000E+00 -0.00000000000E+00 -0.12500000000E+03  0.12500000000E+03  0.00000000000E+00 0. -1.
         24    1    1    2    0    0 -0.21716522878E+02 -0.81211212857E+01  0.92845161795E+02  0.12500000000E+03  0.80419002446E+02 0.  1.
        -24    1    1    2    0    0  0.21716522878E+02  0.81211212857E+01 -0.92845161795E+02  0.12500000000E+03  0.80419002446E+02 0. -1.
</event>
<event>
 4    1  0.1586888E-001  0.1250000E+03  0.7546771E-02  0.1126479E+00
        -11   -1    0    0    0    0  0.00000000000E+00  0.00000000000E+00  0.12500000000E+03  0.12500000000E+03  0.00000000000E+00 0.  1.
         11   -1    0    0    0    0 -0.00000000000E+00 -0.00000000000E+00 -0.12500000000E+03  0.12500000000E+03  0.00000000000E+00 0. -1.
         24    1    1    2    0    0  0.67675512048E+02 -0.50413197852E+02  0.45125586944E+02  0.12500000000E+03  0.80419002446E+02 0.  1.
        -24    1    1    2    0    0 -0.67675512048E+02  0.50413197852E+02 -0.45125586944E+02  0.12500000000E+03  0.80419002446E+02 0. -1.
</event>
<event>
 4    1  0.1586888E-001  0.1250000E+03  0.7546771E-02  0.1126479E+00
        -11   -1    0    0    0    0  0.00000000000E+00  0.00000000000E+00  0.12500000000E+03  0.12500000000E+03  0.00000000000E+00 0.  1.
         11   -1    0    0    0    0 -0.00000000000E+00 -0.00000000000E+00 -0.12500000000E+03  0.12500000000E+03  0.00000000000E+00 0. -1.
         24    1    1    2    0    0  0.78836726085E+02 -0.60324315810E+01  0.53908853030E+02  0.12500000000E+03  0.80419002446E+02 0. -1.
        -24    1    1    2    0    0 -0.78836726085E+02  0.60324315810E+01 -0.53908853030E+02  0.12500000000E+03  0.80419002446E+02 0.  1.
</event>
<event>
 4    1  0.1586888E-001  0.1250000E+03  0.7546771E-02  0.1126479E+00
        -11   -1    0    0    0    0  0.00000000000E+00  0.00000000000E+00  0.12500000000E+03  0.12500000000E+03  0.00000000000E+00 0.  1.
         11   -1    0    0    0    0 -0.00000000000E+00 -0.00000000000E+00 -0.12500000000E+03  0.12500000000E+03  0.00000000000E+00 0. -1.
         24    1    1    2    0    0 -0.12572532922E+02  0.22937629059E+02  0.92052053941E+02  0.12500000000E+03  0.80419002446E+02 0. -1.
        -24    1    1    2    0    0  0.12572532922E+02 -0.22937629059E+02 -0.92052053941E+02  0.12500000000E+03  0.80419002446E+02 0.  1.
</event>
<event>
 4    1  0.1586888E-001  0.1250000E+03  0.7546771E-02  0.1126479E+00
        -11   -1    0    0    0    0  0.00000000000E+00  0.00000000000E+00  0.12500000000E+03  0.12500000000E+03  0.00000000000E+00 0.  1.
         11   -1    0    0    0    0 -0.00000000000E+00 -0.00000000000E+00 -0.12500000000E+03  0.12500000000E+03  0.00000000000E+00 0. -1.
         24    1    1    2    0    0 -0.31810207683E+02 -0.66313147887E+02  0.61224677623E+02  0.12500000000E+03  0.80419002446E+02 0.  1.
        -24    1    1    2    0    0  0.31810207683E+02  0.66313147887E+02 -0.61224677623E+02  0.12500000000E+03  0.80419002446E+02 0. -1.
</event>
<event>
 4    1  0.1586888E-001  0.1250000E+03  0.7546771E-02  0.1126479E+00
        -11   -1    0    0    0    0  0.00000000000E+00  0.00000000000E+00  0.12500000000E+03  0.12500000000E+03  0.00000000000E+00 0.  1.
         11   -1    0    0    0    0 -0.00000000000E+00 -0.00000000000E+00 -0.12500000000E+03  0.12500000000E+03  0.00000000000E+00 0. -1.
         24    1    1    2    0    0 -0.21445467637E+02 -0.42994743261E+02  0.82760667079E+02  0.12500000000E+03  0.80419002446E+02 0.  1.
        -24    1    1    2    0    0  0.21445467637E+02  0.42994743261E+02 -0.82760667079E+02  0.12500000000E+03  0.80419002446E+02 0. -1.
</event>
<event>
 4    1  0.1586888E-001  0.1250000E+03  0.7546771E-02  0.1126479E+00
        -11   -1    0    0    0    0  0.00000000000E+00  0.00000000000E+00  0.12500000000E+03  0.12500000000E+03  0.00000000000E+00 0.  1.
         11   -1    0    0    0    0 -0.00000000000E+00 -0.00000000000E+00 -0.12500000000E+03  0.12500000000E+03  0.00000000000E+00 0. -1.
         24    1    1    2    0    0 -0.31037191090E+02 -0.51117904758E+02  0.74709013031E+02  0.12500000000E+03  0.80419002446E+02 0.  1.
        -24    1    1    2    0    0  0.31037191090E+02  0.51117904758E+02 -0.74709013031E+02  0.12500000000E+03  0.80419002446E+02 0. -1.
</event>
<event>
 4    1  0.1586888E-001  0.1250000E+03  0.7546771E-02  0.1126479E+00
        -11   -1    0    0    0    0  0.00000000000E+00  0.00000000000E+00  0.12500000000E+03  0.12500000000E+03  0.00000000000E+00 0.  1.
         11   -1    0    0    0    0 -0.00000000000E+00 -0.00000000000E+00 -0.12500000000E+03  0.12500000000E+03  0.00000000000E+00 0. -1.
         24    1    1    2    0    0  0.17980263563E+02 -0.93809247354E+02  0.58582658433E+01  0.12500000000E+03  0.80419002446E+02 0.  1.
        -24    1    1    2    0    0 -0.17980263563E+02  0.93809247354E+02 -0.58582658433E+01  0.12500000000E+03  0.80419002446E+02 0. -1.
</event>
<event>
 4    1  0.1586888E-001  0.1250000E+03  0.7546771E-02  0.1126479E+00
        -11   -1    0    0    0    0  0.00000000000E+00  0.00000000000E+00  0.12500000000E+03  0.12500000000E+03  0.00000000000E+00 0.  1.
         11   -1    0    0    0    0 -0.00000000000E+00 -0.00000000000E+00 -0.12500000000E+03  0.12500000000E+03  0.00000000000E+00 0. -1.
         24    1    1    2    0    0 -0.25636543047E+02  0.18277538784E+02  0.90368596770E+02  0.12500000000E+03  0.80419002446E+02 0.  1.
        -24    1    1    2    0    0  0.25636543047E+02 -0.18277538784E+02 -0.90368596770E+02  0.12500000000E+03  0.80419002446E+02 0.  0.
</event>
<event>
 4    1  0.1586888E-001  0.1250000E+03  0.7546771E-02  0.1126479E+00
        -11   -1    0    0    0    0  0.00000000000E+00  0.00000000000E+00  0.12500000000E+03  0.12500000000E+03  0.00000000000E+00 0.  1.
         11   -1    0    0    0    0 -0.00000000000E+00 -0.00000000000E+00 -0.12500000000E+03  0.12500000000E+03  0.00000000000E+00 0. -1.
         24    1    1    2    0    0  0.27418857807E+02  0.61473385899E+02  0.68022151600E+02  0.12500000000E+03  0.80419002446E+02 0.  1.
        -24    1    1    2    0    0 -0.27418857807E+02 -0.61473385899E+02 -0.68022151600E+02  0.12500000000E+03  0.80419002446E+02 0. -1.
</event>
<event>
 4    1  0.1586888E-001  0.1250000E+03  0.7546771E-02  0.1126479E+00
        -11   -1    0    0    0    0  0.00000000000E+00  0.00000000000E+00  0.12500000000E+03  0.12500000000E+03  0.00000000000E+00 0.  1.
         11   -1    0    0    0    0 -0.00000000000E+00 -0.00000000000E+00 -0.12500000000E+03  0.12500000000E+03  0.00000000000E+00 0. -1.
         24    1    1    2    0    0 -0.13054198058E+02  0.33304327753E+02  0.88759189449E+02  0.12500000000E+03  0.80419002446E+02 0.  1.
        -24    1    1    2    0    0  0.13054198058E+02 -0.33304327753E+02 -0.88759189449E+02  0.12500000000E+03  0.80419002446E+02 0. -1.
</event>
<event>
 4    1  0.1586888E-001  0.1250000E+03  0.7546771E-02  0.1126479E+00
        -11   -1    0    0    0    0  0.00000000000E+00  0.00000000000E+00  0.12500000000E+03  0.12500000000E+03  0.00000000000E+00 0.  1.
         11   -1    0    0    0    0 -0.00000000000E+00 -0.00000000000E+00 -0.12500000000E+03  0.12500000000E+03  0.00000000000E+00 0. -1.
         24    1    1    2    0    0 -0.49415544912E+02  0.81786703632E+02  0.51790998838E+01  0.12500000000E+03  0.80419002446E+02 0.  1.
        -24    1    1    2    0    0  0.49415544912E+02 -0.81786703632E+02 -0.51790998838E+01  0.12500000000E+03  0.80419002446E+02 0. -1.
</event>
<event>
 4    1  0.1586888E-001  0.1250000E+03  0.7546771E-02  0.1126479E+00
        -11   -1    0    0    0    0  0.00000000000E+00  0.00000000000E+00  0.12500000000E+03  0.12500000000E+03  0.00000000000E+00 0.  1.
         11   -1    0    0    0    0 -0.00000000000E+00 -0.00000000000E+00 -0.12500000000E+03  0.12500000000E+03  0.00000000000E+00 0. -1.
         24    1    1    2    0    0  0.33122719809E+01  0.12809253932E+02  0.94777296404E+02  0.12500000000E+03  0.80419002446E+02 0.  1.
        -24    1    1    2    0    0 -0.33122719809E+01 -0.12809253932E+02 -0.94777296404E+02  0.12500000000E+03  0.80419002446E+02 0. -1.
</event>
<event>
 4    1  0.1586888E-001  0.1250000E+03  0.7546771E-02  0.1126479E+00
        -11   -1    0    0    0    0  0.00000000000E+00  0.00000000000E+00  0.12500000000E+03  0.12500000000E+03  0.00000000000E+00 0.  1.
         11   -1    0    0    0    0 -0.00000000000E+00 -0.00000000000E+00 -0.12500000000E+03  0.12500000000E+03  0.00000000000E+00 0. -1.
         24    1    1    2    0    0 -0.92758805060E+02  0.20817202083E+02  0.10965045683E+02  0.12500000000E+03  0.80419002446E+02 0.  1.
        -24    1    1    2    0    0  0.92758805060E+02 -0.20817202083E+02 -0.10965045683E+02  0.12500000000E+03  0.80419002446E+02 0. -1.
</event>
<event>
 4    1  0.1586888E-001  0.1250000E+03  0.7546771E-02  0.1126479E+00
        -11   -1    0    0    0    0  0.00000000000E+00  0.00000000000E+00  0.12500000000E+03  0.12500000000E+03  0.00000000000E+00 0.  1.
         11   -1    0    0    0    0 -0.00000000000E+00 -0.00000000000E+00 -0.12500000000E+03  0.12500000000E+03  0.00000000000E+00 0. -1.
         24    1    1    2    0    0  0.41333405247E+02  0.81450674552E+02  0.28550328742E+02  0.12500000000E+03  0.80419002446E+02 0.  1.
        -24    1    1    2    0    0 -0.41333405247E+02 -0.81450674552E+02 -0.28550328742E+02  0.12500000000E+03  0.80419002446E+02 0.  0.
</event>
<event>
 4    1  0.1586888E-001  0.1250000E+03  0.7546771E-02  0.1126479E+00
        -11   -1    0    0    0    0  0.00000000000E+00  0.00000000000E+00  0.12500000000E+03  0.12500000000E+03  0.00000000000E+00 0.  1.
         11   -1    0    0    0    0 -0.00000000000E+00 -0.00000000000E+00 -0.12500000000E+03  0.12500000000E+03  0.00000000000E+00 0. -1.
         24    1    1    2    0    0 -0.77224478223E+02 -0.37868853734E+02  0.41953711704E+02  0.12500000000E+03  0.80419002446E+02 0.  1.
        -24    1    1    2    0    0  0.77224478223E+02  0.37868853734E+02 -0.41953711704E+02  0.12500000000E+03  0.80419002446E+02 0. -1.
</event>
<event>
 4    1  0.1586888E-001  0.1250000E+03  0.7546771E-02  0.1126479E+00
        -11   -1    0    0    0    0  0.00000000000E+00  0.00000000000E+00  0.12500000000E+03  0.12500000000E+03  0.00000000000E+00 0.  1.
         11   -1    0    0    0    0 -0.00000000000E+00 -0.00000000000E+00 -0.12500000000E+03  0.12500000000E+03  0.00000000000E+00 0. -1.
         24    1    1    2    0    0  0.72602162099E+02 -0.15427500704E+02  0.60404489289E+02  0.12500000000E+03  0.80419002446E+02 0.  1.
        -24    1    1    2    0    0 -0.72602162099E+02  0.15427500704E+02 -0.60404489289E+02  0.12500000000E+03  0.80419002446E+02 0. -1.
</event>
<event>
 4    1  0.1586888E-001  0.1250000E+03  0.7546771E-02  0.1126479E+00
        -11   -1    0    0    0    0  0.00000000000E+00  0.00000000000E+00  0.12500000000E+03  0.12500000000E+03  0.00000000000E+00 0.  1.
         11   -1    0    0    0    0 -0.00000000000E+00 -0.00000000000E+00 -0.12500000000E+03  0.12500000000E+03  0.00000000000E+00 0. -1.
         24    1    1    2    0    0 -0.38941752684E+02 -0.15288557639E+02  0.86067322189E+02  0.12500000000E+03  0.80419002446E+02 0.  1.
        -24    1    1    2    0    0  0.38941752684E+02  0.15288557639E+02 -0.86067322189E+02  0.12500000000E+03  0.80419002446E+02 0. -1.
</event>
<event>
 4    1  0.1586888E-001  0.1250000E+03  0.7546771E-02  0.1126479E+00
        -11   -1    0    0    0    0  0.00000000000E+00  0.00000000000E+00  0.12500000000E+03  0.12500000000E+03  0.00000000000E+00 0.  1.
         11   -1    0    0    0    0 -0.00000000000E+00 -0.00000000000E+00 -0.12500000000E+03  0.12500000000E+03  0.00000000000E+00 0. -1.
         24    1    1    2    0    0 -0.27371112396E+02  0.47756246769E+02  0.78281205576E+02  0.12500000000E+03  0.80419002446E+02 0.  1.
        -24    1    1    2    0    0  0.27371112396E+02 -0.47756246769E+02 -0.78281205576E+02  0.12500000000E+03  0.80419002446E+02 0. -1.
</event>
<event>
 4    1  0.1586888E-001  0.1250000E+03  0.7546771E-02  0.1126479E+00
        -11   -1    0    0    0    0  0.00000000000E+00  0.00000000000E+00  0.12500000000E+03  0.12500000000E+03  0.00000000000E+00 0.  1.
         11   -1    0    0    0    0 -0.00000000000E+00 -0.00000000000E+00 -0.12500000000E+03  0.12500000000E+03  0.00000000000E+00 0. -1.
         24    1    1    2    0    0  0.18618041221E+02  0.22625578204E+02  0.91100141590E+02  0.12500000000E+03  0.80419002446E+02 0.  1.
        -24    1    1    2    0    0 -0.18618041221E+02 -0.22625578204E+02 -0.91100141590E+02  0.12500000000E+03  0.80419002446E+02 0. -1.
</event>
<event>
 4    1  0.1586888E-001  0.1250000E+03  0.7546771E-02  0.1126479E+00
        -11   -1    0    0    0    0  0.00000000000E+00  0.00000000000E+00  0.12500000000E+03  0.12500000000E+03  0.00000000000E+00 0.  1.
         11   -1    0    0    0    0 -0.00000000000E+00 -0.00000000000E+00 -0.12500000000E+03  0.12500000000E+03  0.00000000000E+00 0. -1.
         24    1    1    2    0    0  0.20403106276E+02 -0.80911801506E+01  0.93145209773E+02  0.12500000000E+03  0.80419002446E+02 0.  1.
        -24    1    1    2    0    0 -0.20403106276E+02  0.80911801506E+01 -0.93145209773E+02  0.12500000000E+03  0.80419002446E+02 0. -1.
</event>
<event>
 4    1  0.1586888E-001  0.1250000E+03  0.7546771E-02  0.1126479E+00
        -11   -1    0    0    0    0  0.00000000000E+00  0.00000000000E+00  0.12500000000E+03  0.12500000000E+03  0.00000000000E+00 0.  1.
         11   -1    0    0    0    0 -0.00000000000E+00 -0.00000000000E+00 -0.12500000000E+03  0.12500000000E+03  0.00000000000E+00 0. -1.
         24    1    1    2    0    0  0.29216645669E+02 -0.16364254630E+02  0.89645874595E+02  0.12500000000E+03  0.80419002446E+02 0.  1.
        -24    1    1    2    0    0 -0.29216645669E+02  0.16364254630E+02 -0.89645874595E+02  0.12500000000E+03  0.80419002446E+02 0. -1.
</event>
<event>
 4    1  0.1586888E-001  0.1250000E+03  0.7546771E-02  0.1126479E+00
        -11   -1    0    0    0    0  0.00000000000E+00  0.00000000000E+00  0.12500000000E+03  0.12500000000E+03  0.00000000000E+00 0.  1.
         11   -1    0    0    0    0 -0.00000000000E+00 -0.00000000000E+00 -0.12500000000E+03  0.12500000000E+03  0.00000000000E+00 0. -1.
         24    1    1    2    0    0 -0.88430429769E+02  0.10916220793E+02  0.34909586936E+02  0.12500000000E+03  0.80419002446E+02 0.  1.
        -24    1    1    2    0    0  0.88430429769E+02 -0.10916220793E+02 -0.34909586936E+02  0.12500000000E+03  0.80419002446E+02 0. -1.
</event>
<event>
 4    1  0.1586888E-001  0.1250000E+03  0.7546771E-02  0.1126479E+00
        -11   -1    0    0    0    0  0.00000000000E+00  0.00000000000E+00  0.12500000000E+03  0.12500000000E+03  0.00000000000E+00 0.  1.
         11   -1    0    0    0    0 -0.00000000000E+00 -0.00000000000E+00 -0.12500000000E+03  0.12500000000E+03  0.00000000000E+00 0. -1.
         24    1    1    2    0    0  0.41221251504E+02 -0.39953344465E+01  0.86270677363E+02  0.12500000000E+03  0.80419002446E+02 0.  1.
        -24    1    1    2    0    0 -0.41221251504E+02  0.39953344465E+01 -0.86270677363E+02  0.12500000000E+03  0.80419002446E+02 0. -1.
</event>
<event>
 4    1  0.1586888E-001  0.1250000E+03  0.7546771E-02  0.1126479E+00
        -11   -1    0    0    0    0  0.00000000000E+00  0.00000000000E+00  0.12500000000E+03  0.12500000000E+03  0.00000000000E+00 0.  1.
         11   -1    0    0    0    0 -0.00000000000E+00 -0.00000000000E+00 -0.12500000000E+03  0.12500000000E+03  0.00000000000E+00 0. -1.
         24    1    1    2    0    0  0.83441569647E+02 -0.86267214588E+00  0.46845963511E+02  0.12500000000E+03  0.80419002446E+02 0.  1.
        -24    1    1    2    0    0 -0.83441569647E+02  0.86267214588E+00 -0.46845963511E+02  0.12500000000E+03  0.80419002446E+02 0.  0.
</event>
<event>
 4    1  0.1586888E-001  0.1250000E+03  0.7546771E-02  0.1126479E+00
        -11   -1    0    0    0    0  0.00000000000E+00  0.00000000000E+00  0.12500000000E+03  0.12500000000E+03  0.00000000000E+00 0.  1.
         11   -1    0    0    0    0 -0.00000000000E+00 -0.00000000000E+00 -0.12500000000E+03  0.12500000000E+03  0.00000000000E+00 0. -1.
         24    1    1    2    0    0 -0.13131011449E+02 -0.44702161742E+02  0.83588739191E+02  0.12500000000E+03  0.80419002446E+02 0.  1.
        -24    1    1    2    0    0  0.13131011449E+02  0.44702161742E+02 -0.83588739191E+02  0.12500000000E+03  0.80419002446E+02 0. -1.
</event>
<event>
 4    1  0.1586888E-001  0.1250000E+03  0.7546771E-02  0.1126479E+00
        -11   -1    0    0    0    0  0.00000000000E+00  0.00000000000E+00  0.12500000000E+03  0.12500000000E+03  0.00000000000E+00 0.  1.
         11   -1    0    0    0    0 -0.00000000000E+00 -0.00000000000E+00 -0.12500000000E+03  0.12500000000E+03  0.00000000000E+00 0. -1.
         24    1    1    2    0    0 -0.21198445434E+02 -0.47819439503E+02  0.80135579878E+02  0.12500000000E+03  0.80419002446E+02 0.  1.
        -24    1    1    2    0    0  0.21198445434E+02  0.47819439503E+02 -0.80135579878E+02  0.12500000000E+03  0.80419002446E+02 0. -1.
</event>
<event>
 4    1  0.1586888E-001  0.1250000E+03  0.7546771E-02  0.1126479E+00
        -11   -1    0    0    0    0  0.00000000000E+00  0.00000000000E+00  0.12500000000E+03  0.12500000000E+03  0.00000000000E+00 0.  1.
         11   -1    0    0    0    0 -0.00000000000E+00 -0.00000000000E+00 -0.12500000000E+03  0.12500000000E+03  0.00000000000E+00 0. -1.
         24    1    1    2    0    0 -0.24468586428E+02  0.12306701436E+01  0.92507068783E+02  0.12500000000E+03  0.80419002446E+02 0.  1.
        -24    1    1    2    0    0  0.24468586428E+02 -0.12306701436E+01 -0.92507068783E+02  0.12500000000E+03  0.80419002446E+02 0. -1.
</event>
<event>
 4    1  0.1586888E-001  0.1250000E+03  0.7546771E-02  0.1126479E+00
        -11   -1    0    0    0    0  0.00000000000E+00  0.00000000000E+00  0.12500000000E+03  0.12500000000E+03  0.00000000000E+00 0.  1.
         11   -1    0    0    0    0 -0.00000000000E+00 -0.00000000000E+00 -0.12500000000E+03  0.12500000000E+03  0.00000000000E+00 0. -1.
         24    1    1    2    0    0 -0.23032400495E+02  0.16238269570E+02  0.91452781119E+02  0.12500000000E+03  0.80419002446E+02 0.  1.
        -24    1    1    2    0    0  0.23032400495E+02 -0.16238269570E+02 -0.91452781119E+02  0.12500000000E+03  0.80419002446E+02 0. -1.
</event>
<event>
 4    1  0.1586888E-001  0.1250000E+03  0.7546771E-02  0.1126479E+00
        -11   -1    0    0    0    0  0.00000000000E+00  0.00000000000E+00  0.12500000000E+03  0.12500000000E+03  0.00000000000E+00 0.  1.
         11   -1    0    0    0    0 -0.00000000000E+00 -0.00000000000E+00 -0.12500000000E+03  0.12500000000E+03  0.00000000000E+00 0. -1.
         24    1    1    2    0    0  0.34659808213E+02 -0.89198834083E+02  0.22302136362E+00  0.12500000000E+03  0.80419002446E+02 0.  1.
        -24    1    1    2    0    0 -0.34659808213E+02  0.89198834083E+02 -0.22302136362E+00  0.12500000000E+03  0.80419002446E+02 0. -1.
</event>
<event>
 4    1  0.1586888E-001  0.1250000E+03  0.7546771E-02  0.1126479E+00
        -11   -1    0    0    0    0  0.00000000000E+00  0.00000000000E+00  0.12500000000E+03  0.12500000000E+03  0.00000000000E+00 0.  1.
         11   -1    0    0    0    0 -0.00000000000E+00 -0.00000000000E+00 -0.12500000000E+03  0.12500000000E+03  0.00000000000E+00 0. -1.
         24    1    1    2    0    0  0.60334081326E+02 -0.61843942182E+02  0.41144981365E+02  0.12500000000E+03  0.80419002446E+02 0.  1.
        -24    1    1    2    0    0 -0.60334081326E+02  0.61843942182E+02 -0.41144981365E+02  0.12500000000E+03  0.80419002446E+02 0. -1.
</event>
<event>
 4    1  0.1586888E-001  0.1250000E+03  0.7546771E-02  0.1126479E+00
        -11   -1    0    0    0    0  0.00000000000E+00  0.00000000000E+00  0.12500000000E+03  0.12500000000E+03  0.00000000000E+00 0.  1.
         11   -1    0    0    0    0 -0.00000000000E+00 -0.00000000000E+00 -0.12500000000E+03  0.12500000000E+03  0.00000000000E+00 0. -1.
         24    1    1    2    0    0  0.43678835191E+02 -0.72525292870E+02  0.44609699574E+02  0.12500000000E+03  0.80419002446E+02 0.  1.
        -24    1    1    2    0    0 -0.43678835191E+02  0.72525292870E+02 -0.44609699574E+02  0.12500000000E+03  0.80419002446E+02 0. -1.
</event>
<event>
 4    1  0.1586888E-001  0.1250000E+03  0.7546771E-02  0.1126479E+00
        -11   -1    0    0    0    0  0.00000000000E+00  0.00000000000E+00  0.12500000000E+03  0.12500000000E+03  0.00000000000E+00 0.  1.
         11   -1    0    0    0    0 -0.00000000000E+00 -0.00000000000E+00 -0.12500000000E+03  0.12500000000E+03  0.00000000000E+00 0. -1.
         24    1    1    2    0    0  0.50908252956E+02  0.80162572648E+02  0.11836206026E+02  0.12500000000E+03  0.80419002446E+02 0.  1.
        -24    1    1    2    0    0 -0.50908252956E+02 -0.80162572648E+02 -0.11836206026E+02  0.12500000000E+03  0.80419002446E+02 0.  0.
</event>
<event>
 4    1  0.1586888E-001  0.1250000E+03  0.7546771E-02  0.1126479E+00
        -11   -1    0    0    0    0  0.00000000000E+00  0.00000000000E+00  0.12500000000E+03  0.12500000000E+03  0.00000000000E+00 0.  1.
         11   -1    0    0    0    0 -0.00000000000E+00 -0.00000000000E+00 -0.12500000000E+03  0.12500000000E+03  0.00000000000E+00 0. -1.
         24    1    1    2    0    0  0.97885565555E+01  0.26124229461E+02  0.91539569811E+02  0.12500000000E+03  0.80419002446E+02 0.  1.
        -24    1    1    2    0    0 -0.97885565555E+01 -0.26124229461E+02 -0.91539569811E+02  0.12500000000E+03  0.80419002446E+02 0.  0.
</event>
<event>
 4    1  0.1586888E-001  0.1250000E+03  0.7546771E-02  0.1126479E+00
        -11   -1    0    0    0    0  0.00000000000E+00  0.00000000000E+00  0.12500000000E+03  0.12500000000E+03  0.00000000000E+00 0.  1.
         11   -1    0    0    0    0 -0.00000000000E+00 -0.00000000000E+00 -0.12500000000E+03  0.12500000000E+03  0.00000000000E+00 0. -1.
         24    1    1    2    0    0  0.10866078758E+02 -0.13150299436E+02  0.94163591705E+02  0.12500000000E+03  0.80419002446E+02 0.  1.
        -24    1    1    2    0    0 -0.10866078758E+02  0.13150299436E+02 -0.94163591705E+02  0.12500000000E+03  0.80419002446E+02 0. -1.
</event>
<event>
 4    1  0.1586888E-001  0.1250000E+03  0.7546771E-02  0.1126479E+00
        -11   -1    0    0    0    0  0.00000000000E+00  0.00000000000E+00  0.12500000000E+03  0.12500000000E+03  0.00000000000E+00 0.  1.
         11   -1    0    0    0    0 -0.00000000000E+00 -0.00000000000E+00 -0.12500000000E+03  0.12500000000E+03  0.00000000000E+00 0. -1.
         24    1    1    2    0    0 -0.22276998710E+02 -0.55311161389E+02  0.74847810923E+02  0.12500000000E+03  0.80419002446E+02 0.  1.
        -24    1    1    2    0    0  0.22276998710E+02  0.55311161389E+02 -0.74847810923E+02  0.12500000000E+03  0.80419002446E+02 0. -1.
</event>
<event>
 4    1  0.1586888E-001  0.1250000E+03  0.7546771E-02  0.1126479E+00
        -11   -1    0    0    0    0  0.00000000000E+00  0.00000000000E+00  0.12500000000E+03  0.12500000000E+03  0.00000000000E+00 0.  1.
         11   -1    0    0    0    0 -0.00000000000E+00 -0.00000000000E+00 -0.12500000000E+03  0.12500000000E+03  0.00000000000E+00 0. -1.
         24    1    1    2    0    0 -0.62833309701E+02 -0.72178450953E+02  0.17451562572E+00  0.12500000000E+03  0.80419002446E+02 0.  1.
        -24    1    1    2    0    0  0.62833309701E+02  0.72178450953E+02 -0.17451562572E+00  0.12500000000E+03  0.80419002446E+02 0.  0.
</event>
<event>
 4    1  0.1586888E-001  0.1250000E+03  0.7546771E-02  0.1126479E+00
        -11   -1    0    0    0    0  0.00000000000E+00  0.00000000000E+00  0.12500000000E+03  0.12500000000E+03  0.00000000000E+00 0.  1.
         11   -1    0    0    0    0 -0.00000000000E+00 -0.00000000000E+00 -0.12500000000E+03  0.12500000000E+03  0.00000000000E+00 0. -1.
         24    1    1    2    0    0  0.34053757832E+02 -0.43968481877E+01  0.89324091650E+02  0.12500000000E+03  0.80419002446E+02 0.  1.
        -24    1    1    2    0    0 -0.34053757832E+02  0.43968481877E+01 -0.89324091650E+02  0.12500000000E+03  0.80419002446E+02 0. -1.
</event>
<event>
 4    1  0.1586888E-001  0.1250000E+03  0.7546771E-02  0.1126479E+00
        -11   -1    0    0    0    0  0.00000000000E+00  0.00000000000E+00  0.12500000000E+03  0.12500000000E+03  0.00000000000E+00 0.  1.
         11   -1    0    0    0    0 -0.00000000000E+00 -0.00000000000E+00 -0.12500000000E+03  0.12500000000E+03  0.00000000000E+00 0. -1.
         24    1    1    2    0    0 -0.59759910777E+02 -0.30362064758E+02  0.68298478264E+02  0.12500000000E+03  0.80419002446E+02 0.  1.
        -24    1    1    2    0    0  0.59759910777E+02  0.30362064758E+02 -0.68298478264E+02  0.12500000000E+03  0.80419002446E+02 0. -1.
</event>
<event>
 4    1  0.1586888E-001  0.1250000E+03  0.7546771E-02  0.1126479E+00
        -11   -1    0    0    0    0  0.00000000000E+00  0.00000000000E+00  0.12500000000E+03  0.12500000000E+03  0.00000000000E+00 0.  1.
         11   -1    0    0    0    0 -0.00000000000E+00 -0.00000000000E+00 -0.12500000000E+03  0.12500000000E+03  0.00000000000E+00 0. -1.
         24    1    1    2    0    0  0.58786548413E+02  0.41172615857E+02  0.63298826804E+02  0.12500000000E+03  0.80419002446E+02 0.  1.
        -24    1    1    2    0    0 -0.58786548413E+02 -0.41172615857E+02 -0.63298826804E+02  0.12500000000E+03  0.80419002446E+02 0. -1.
</event>
<event>
 4    1  0.1586888E-001  0.1250000E+03  0.7546771E-02  0.1126479E+00
        -11   -1    0    0    0    0  0.00000000000E+00  0.00000000000E+00  0.12500000000E+03  0.12500000000E+03  0.00000000000E+00 0.  1.
         11   -1    0    0    0    0 -0.00000000000E+00 -0.00000000000E+00 -0.12500000000E+03  0.12500000000E+03  0.00000000000E+00 0. -1.
         24    1    1    2    0    0 -0.69868164850E+02 -0.24565142111E+02  0.60603443624E+02  0.12500000000E+03  0.80419002446E+02 0.  1.
        -24    1    1    2    0    0  0.69868164850E+02  0.24565142111E+02 -0.60603443624E+02  0.12500000000E+03  0.80419002446E+02 0. -1.
</event>
<event>
 4    1  0.1586888E-001  0.1250000E+03  0.7546771E-02  0.1126479E+00
        -11   -1    0    0    0    0  0.00000000000E+00  0.00000000000E+00  0.12500000000E+03  0.12500000000E+03  0.00000000000E+00 0.  1.
         11   -1    0    0    0    0 -0.00000000000E+00 -0.00000000000E+00 -0.12500000000E+03  0.12500000000E+03  0.00000000000E+00 0. -1.
         24    1    1    2    0    0 -0.56575398374E+01  0.16794533546E+02  0.94041054501E+02  0.12500000000E+03  0.80419002446E+02 0.  1.
        -24    1    1    2    0    0  0.56575398374E+01 -0.16794533546E+02 -0.94041054501E+02  0.12500000000E+03  0.80419002446E+02 0. -1.
</event>
<event>
 4    1  0.1586888E-001  0.1250000E+03  0.7546771E-02  0.1126479E+00
        -11   -1    0    0    0    0  0.00000000000E+00  0.00000000000E+00  0.12500000000E+03  0.12500000000E+03  0.00000000000E+00 0.  1.
         11   -1    0    0    0    0 -0.00000000000E+00 -0.00000000000E+00 -0.12500000000E+03  0.12500000000E+03  0.00000000000E+00 0. -1.
         24    1    1    2    0    0  0.12663809211E+02  0.16332581307E+02  0.93437994251E+02  0.12500000000E+03  0.80419002446E+02 0.  1.
        -24    1    1    2    0    0 -0.12663809211E+02 -0.16332581307E+02 -0.93437994251E+02  0.12500000000E+03  0.80419002446E+02 0. -1.
</event>
<event>
 4    1  0.1586888E-001  0.1250000E+03  0.7546771E-02  0.1126479E+00
        -11   -1    0    0    0    0  0.00000000000E+00  0.00000000000E+00  0.12500000000E+03  0.12500000000E+03  0.00000000000E+00 0.  1.
         11   -1    0    0    0    0 -0.00000000000E+00 -0.00000000000E+00 -0.12500000000E+03  0.12500000000E+03  0.00000000000E+00 0. -1.
         24    1    1    2    0    0 -0.60867686453E+01  0.70677341963E+01  0.95240655323E+02  0.12500000000E+03  0.80419002446E+02 0.  1.
        -24    1    1    2    0    0  0.60867686453E+01 -0.70677341963E+01 -0.95240655323E+02  0.12500000000E+03  0.80419002446E+02 0. -1.
</event>
<event>
 4    1  0.1586888E-001  0.1250000E+03  0.7546771E-02  0.1126479E+00
        -11   -1    0    0    0    0  0.00000000000E+00  0.00000000000E+00  0.12500000000E+03  0.12500000000E+03  0.00000000000E+00 0.  1.
         11   -1    0    0    0    0 -0.00000000000E+00 -0.00000000000E+00 -0.12500000000E+03  0.12500000000E+03  0.00000000000E+00 0. -1.
         24    1    1    2    0    0 -0.12280741100E+02 -0.61613621618E+02  0.72185379924E+02  0.12500000000E+03  0.80419002446E+02 0.  1.
        -24    1    1    2    0    0  0.12280741100E+02  0.61613621618E+02 -0.72185379924E+02  0.12500000000E+03  0.80419002446E+02 0. -1.
</event>
<event>
 4    1  0.1586888E-001  0.1250000E+03  0.7546771E-02  0.1126479E+00
        -11   -1    0    0    0    0  0.00000000000E+00  0.00000000000E+00  0.12500000000E+03  0.12500000000E+03  0.00000000000E+00 0.  1.
         11   -1    0    0    0    0 -0.00000000000E+00 -0.00000000000E+00 -0.12500000000E+03  0.12500000000E+03  0.00000000000E+00 0. -1.
         24    1    1    2    0    0 -0.18005409855E+02 -0.28320056169E+02  0.89618991738E+02  0.12500000000E+03  0.80419002446E+02 0.  1.
        -24    1    1    2    0    0  0.18005409855E+02  0.28320056169E+02 -0.89618991738E+02  0.12500000000E+03  0.80419002446E+02 0. -1.
</event>
<event>
 4    1  0.1586888E-001  0.1250000E+03  0.7546771E-02  0.1126479E+00
        -11   -1    0    0    0    0  0.00000000000E+00  0.00000000000E+00  0.12500000000E+03  0.12500000000E+03  0.00000000000E+00 0.  1.
         11   -1    0    0    0    0 -0.00000000000E+00 -0.00000000000E+00 -0.12500000000E+03  0.12500000000E+03  0.00000000000E+00 0. -1.
         24    1    1    2    0    0  0.15020596010E+02  0.23092655039E+02  0.91645485565E+02  0.12500000000E+03  0.80419002446E+02 0. -1.
        -24    1    1    2    0    0 -0.15020596010E+02 -0.23092655039E+02 -0.91645485565E+02  0.12500000000E+03  0.80419002446E+02 0. -1.
</event>
<event>
 4    1  0.1586888E-001  0.1250000E+03  0.7546771E-02  0.1126479E+00
        -11   -1    0    0    0    0  0.00000000000E+00  0.00000000000E+00  0.12500000000E+03  0.12500000000E+03  0.00000000000E+00 0.  1.
         11   -1    0    0    0    0 -0.00000000000E+00 -0.00000000000E+00 -0.12500000000E+03  0.12500000000E+03  0.00000000000E+00 0. -1.
         24    1    1    2    0    0 -0.10798600340E+02  0.34380002841E+02  0.88652070935E+02  0.12500000000E+03  0.80419002446E+02 0.  1.
        -24    1    1    2    0    0  0.10798600340E+02 -0.34380002841E+02 -0.88652070935E+02  0.12500000000E+03  0.80419002446E+02 0. -1.
</event>
<event>
 4    1  0.1586888E-001  0.1250000E+03  0.7546771E-02  0.1126479E+00
        -11   -1    0    0    0    0  0.00000000000E+00  0.00000000000E+00  0.12500000000E+03  0.12500000000E+03  0.00000000000E+00 0.  1.
         11   -1    0    0    0    0 -0.00000000000E+00 -0.00000000000E+00 -0.12500000000E+03  0.12500000000E+03  0.00000000000E+00 0. -1.
         24    1    1    2    0    0 -0.51681087581E+02 -0.59948471866E+02  0.53786893878E+02  0.12500000000E+03  0.80419002446E+02 0.  1.
        -24    1    1    2    0    0  0.51681087581E+02  0.59948471866E+02 -0.53786893878E+02  0.12500000000E+03  0.80419002446E+02 0. -1.
</event>
<event>
 4    1  0.1586888E-001  0.1250000E+03  0.7546771E-02  0.1126479E+00
        -11   -1    0    0    0    0  0.00000000000E+00  0.00000000000E+00  0.12500000000E+03  0.12500000000E+03  0.00000000000E+00 0.  1.
         11   -1    0    0    0    0 -0.00000000000E+00 -0.00000000000E+00 -0.12500000000E+03  0.12500000000E+03  0.00000000000E+00 0. -1.
         24    1    1    2    0    0  0.91960033867E+02  0.14330952068E+02  0.22265669306E+02  0.12500000000E+03  0.80419002446E+02 0. -1.
        -24    1    1    2    0    0 -0.91960033867E+02 -0.14330952068E+02 -0.22265669306E+02  0.12500000000E+03  0.80419002446E+02 0.  1.
</event>
<event>
 4    1  0.1586888E-001  0.1250000E+03  0.7546771E-02  0.1126479E+00
        -11   -1    0    0    0    0  0.00000000000E+00  0.00000000000E+00  0.12500000000E+03  0.12500000000E+03  0.00000000000E+00 0.  1.
         11   -1    0    0    0    0 -0.00000000000E+00 -0.00000000000E+00 -0.12500000000E+03  0.12500000000E+03  0.00000000000E+00 0. -1.
         24    1    1    2    0    0  0.77096497026E+01  0.19571099554E+02  0.93355864354E+02  0.12500000000E+03  0.80419002446E+02 0.  1.
        -24    1    1    2    0    0 -0.77096497026E+01 -0.19571099554E+02 -0.93355864354E+02  0.12500000000E+03  0.80419002446E+02 0. -1.
</event>
<event>
 4    1  0.1586888E-001  0.1250000E+03  0.7546771E-02  0.1126479E+00
        -11   -1    0    0    0    0  0.00000000000E+00  0.00000000000E+00  0.12500000000E+03  0.12500000000E+03  0.00000000000E+00 0.  1.
         11   -1    0    0    0    0 -0.00000000000E+00 -0.00000000000E+00 -0.12500000000E+03  0.12500000000E+03  0.00000000000E+00 0. -1.
         24    1    1    2    0    0 -0.71943638001E+02 -0.56164743021E+02 -0.28764885507E+02  0.12500000000E+03  0.80419002446E+02 0. -1.
        -24    1    1    2    0    0  0.71943638001E+02  0.56164743021E+02  0.28764885507E+02  0.12500000000E+03  0.80419002446E+02 0.  1.
</event>
<event>
 4    1  0.1586888E-001  0.1250000E+03  0.7546771E-02  0.1126479E+00
        -11   -1    0    0    0    0  0.00000000000E+00  0.00000000000E+00  0.12500000000E+03  0.12500000000E+03  0.00000000000E+00 0.  1.
         11   -1    0    0    0    0 -0.00000000000E+00 -0.00000000000E+00 -0.12500000000E+03  0.12500000000E+03  0.00000000000E+00 0. -1.
         24    1    1    2    0    0  0.15835899430E+02 -0.36302825654E+01  0.94307101447E+02  0.12500000000E+03  0.80419002446E+02 0.  1.
        -24    1    1    2    0    0 -0.15835899430E+02  0.36302825654E+01 -0.94307101447E+02  0.12500000000E+03  0.80419002446E+02 0.  1.
</event>
<event>
 4    1  0.1586888E-001  0.1250000E+03  0.7546771E-02  0.1126479E+00
        -11   -1    0    0    0    0  0.00000000000E+00  0.00000000000E+00  0.12500000000E+03  0.12500000000E+03  0.00000000000E+00 0.  1.
         11   -1    0    0    0    0 -0.00000000000E+00 -0.00000000000E+00 -0.12500000000E+03  0.12500000000E+03  0.00000000000E+00 0. -1.
         24    1    1    2    0    0 -0.10148982669E+00  0.24184432987E+02  0.92589885768E+02  0.12500000000E+03  0.80419002446E+02 0.  1.
        -24    1    1    2    0    0  0.10148982669E+00 -0.24184432987E+02 -0.92589885768E+02  0.12500000000E+03  0.80419002446E+02 0. -1.
</event>
<event>
 4    1  0.1586888E-001  0.1250000E+03  0.7546771E-02  0.1126479E+00
        -11   -1    0    0    0    0  0.00000000000E+00  0.00000000000E+00  0.12500000000E+03  0.12500000000E+03  0.00000000000E+00 0.  1.
         11   -1    0    0    0    0 -0.00000000000E+00 -0.00000000000E+00 -0.12500000000E+03  0.12500000000E+03  0.00000000000E+00 0. -1.
         24    1    1    2    0    0 -0.79761188814E+02  0.25407757134E+00  0.52876008257E+02  0.12500000000E+03  0.80419002446E+02 0.  0.
        -24    1    1    2    0    0  0.79761188814E+02 -0.25407757134E+00 -0.52876008257E+02  0.12500000000E+03  0.80419002446E+02 0. -1.
</event>
<event>
 4    1  0.1586888E-001  0.1250000E+03  0.7546771E-02  0.1126479E+00
        -11   -1    0    0    0    0  0.00000000000E+00  0.00000000000E+00  0.12500000000E+03  0.12500000000E+03  0.00000000000E+00 0.  1.
         11   -1    0    0    0    0 -0.00000000000E+00 -0.00000000000E+00 -0.12500000000E+03  0.12500000000E+03  0.00000000000E+00 0. -1.
         24    1    1    2    0    0 -0.23142542561E+02  0.15602449761E+02  0.91535623289E+02  0.12500000000E+03  0.80419002446E+02 0.  1.
        -24    1    1    2    0    0  0.23142542561E+02 -0.15602449761E+02 -0.91535623289E+02  0.12500000000E+03  0.80419002446E+02 0. -1.
</event>
<event>
 4    1  0.1586888E-001  0.1250000E+03  0.7546771E-02  0.1126479E+00
        -11   -1    0    0    0    0  0.00000000000E+00  0.00000000000E+00  0.12500000000E+03  0.12500000000E+03  0.00000000000E+00 0.  1.
         11   -1    0    0    0    0 -0.00000000000E+00 -0.00000000000E+00 -0.12500000000E+03  0.12500000000E+03  0.00000000000E+00 0. -1.
         24    1    1    2    0    0  0.38061188030E+02  0.67006601857E+02  0.56738393694E+02  0.12500000000E+03  0.80419002446E+02 0. -1.
        -24    1    1    2    0    0 -0.38061188030E+02 -0.67006601857E+02 -0.56738393694E+02  0.12500000000E+03  0.80419002446E+02 0.  0.
</event>
<event>
 4    1  0.1586888E-001  0.1250000E+03  0.7546771E-02  0.1126479E+00
        -11   -1    0    0    0    0  0.00000000000E+00  0.00000000000E+00  0.12500000000E+03  0.12500000000E+03  0.00000000000E+00 0.  1.
         11   -1    0    0    0    0 -0.00000000000E+00 -0.00000000000E+00 -0.12500000000E+03  0.12500000000E+03  0.00000000000E+00 0. -1.
         24    1    1    2    0    0  0.12860154286E+02 -0.52034985823E+02  0.79276482816E+02  0.12500000000E+03  0.80419002446E+02 0.  1.
        -24    1    1    2    0    0 -0.12860154286E+02  0.52034985823E+02 -0.79276482816E+02  0.12500000000E+03  0.80419002446E+02 0. -1.
</event>
<event>
 4    1  0.1586888E-001  0.1250000E+03  0.7546771E-02  0.1126479E+00
        -11   -1    0    0    0    0  0.00000000000E+00  0.00000000000E+00  0.12500000000E+03  0.12500000000E+03  0.00000000000E+00 0.  1.
         11   -1    0    0    0    0 -0.00000000000E+00 -0.00000000000E+00 -0.12500000000E+03  0.12500000000E+03  0.00000000000E+00 0. -1.
         24    1    1    2    0    0  0.97384582482E+01 -0.10642108803E+02  0.94602811781E+02  0.12500000000E+03  0.80419002446E+02 0.  0.
        -24    1    1    2    0    0 -0.97384582482E+01  0.10642108803E+02 -0.94602811781E+02  0.12500000000E+03  0.80419002446E+02 0. -1.
</event>
<event>
 4    1  0.1586888E-001  0.1250000E+03  0.7546771E-02  0.1126479E+00
        -11   -1    0    0    0    0  0.00000000000E+00  0.00000000000E+00  0.12500000000E+03  0.12500000000E+03  0.00000000000E+00 0.  1.
         11   -1    0    0    0    0 -0.00000000000E+00 -0.00000000000E+00 -0.12500000000E+03  0.12500000000E+03  0.00000000000E+00 0. -1.
         24    1    1    2    0    0 -0.62510338545E+02  0.54670365442E+01  0.72252011267E+02  0.12500000000E+03  0.80419002446E+02 0.  1.
        -24    1    1    2    0    0  0.62510338545E+02 -0.54670365442E+01 -0.72252011267E+02  0.12500000000E+03  0.80419002446E+02 0. -1.
</event>
<event>
 4    1  0.1586888E-001  0.1250000E+03  0.7546771E-02  0.1126479E+00
        -11   -1    0    0    0    0  0.00000000000E+00  0.00000000000E+00  0.12500000000E+03  0.12500000000E+03  0.00000000000E+00 0.  1.
         11   -1    0    0    0    0 -0.00000000000E+00 -0.00000000000E+00 -0.12500000000E+03  0.12500000000E+03  0.00000000000E+00 0. -1.
         24    1    1    2    0    0 -0.55753342878E+01  0.74518378463E+02  0.59780523287E+02  0.12500000000E+03  0.80419002446E+02 0.  1.
        -24    1    1    2    0    0  0.55753342878E+01 -0.74518378463E+02 -0.59780523287E+02  0.12500000000E+03  0.80419002446E+02 0. -1.
</event>
<event>
 4    1  0.1586888E-001  0.1250000E+03  0.7546771E-02  0.1126479E+00
        -11   -1    0    0    0    0  0.00000000000E+00  0.00000000000E+00  0.12500000000E+03  0.12500000000E+03  0.00000000000E+00 0.  1.
         11   -1    0    0    0    0 -0.00000000000E+00 -0.00000000000E+00 -0.12500000000E+03  0.12500000000E+03  0.00000000000E+00 0. -1.
         24    1    1    2    0    0 -0.11794436935E+02  0.35747343604E+01  0.94899402407E+02  0.12500000000E+03  0.80419002446E+02 0.  0.
        -24    1    1    2    0    0  0.11794436935E+02 -0.35747343604E+01 -0.94899402407E+02  0.12500000000E+03  0.80419002446E+02 0. -1.
</event>
<event>
 4    1  0.1586888E-001  0.1250000E+03  0.7546771E-02  0.1126479E+00
        -11   -1    0    0    0    0  0.00000000000E+00  0.00000000000E+00  0.12500000000E+03  0.12500000000E+03  0.00000000000E+00 0.  1.
         11   -1    0    0    0    0 -0.00000000000E+00 -0.00000000000E+00 -0.12500000000E+03  0.12500000000E+03  0.00000000000E+00 0. -1.
         24    1    1    2    0    0 -0.27292470182E+02  0.91523536622E+02  0.60288772679E+01  0.12500000000E+03  0.80419002446E+02 0.  1.
        -24    1    1    2    0    0  0.27292470182E+02 -0.91523536622E+02 -0.60288772679E+01  0.12500000000E+03  0.80419002446E+02 0.  0.
</event>
<event>
 4    1  0.1586888E-001  0.1250000E+03  0.7546771E-02  0.1126479E+00
        -11   -1    0    0    0    0  0.00000000000E+00  0.00000000000E+00  0.12500000000E+03  0.12500000000E+03  0.00000000000E+00 0.  1.
         11   -1    0    0    0    0 -0.00000000000E+00 -0.00000000000E+00 -0.12500000000E+03  0.12500000000E+03  0.00000000000E+00 0. -1.
         24    1    1    2    0    0 -0.19150226221E+02  0.60897909254E+01  0.93562638525E+02  0.12500000000E+03  0.80419002446E+02 0.  0.
        -24    1    1    2    0    0  0.19150226221E+02 -0.60897909254E+01 -0.93562638525E+02  0.12500000000E+03  0.80419002446E+02 0. -1.
</event>
<event>
 4    1  0.1586888E-001  0.1250000E+03  0.7546771E-02  0.1126479E+00
        -11   -1    0    0    0    0  0.00000000000E+00  0.00000000000E+00  0.12500000000E+03  0.12500000000E+03  0.00000000000E+00 0.  1.
         11   -1    0    0    0    0 -0.00000000000E+00 -0.00000000000E+00 -0.12500000000E+03  0.12500000000E+03  0.00000000000E+00 0. -1.
         24    1    1    2    0    0 -0.28616673755E+02 -0.37738755774E+02  0.83154412640E+02  0.12500000000E+03  0.80419002446E+02 0. -1.
        -24    1    1    2    0    0  0.28616673755E+02  0.37738755774E+02 -0.83154412640E+02  0.12500000000E+03  0.80419002446E+02 0.  0.
</event>
<event>
 4    1  0.1586888E-001  0.1250000E+03  0.7546771E-02  0.1126479E+00
        -11   -1    0    0    0    0  0.00000000000E+00  0.00000000000E+00  0.12500000000E+03  0.12500000000E+03  0.00000000000E+00 0.  1.
         11   -1    0    0    0    0 -0.00000000000E+00 -0.00000000000E+00 -0.12500000000E+03  0.12500000000E+03  0.00000000000E+00 0. -1.
         24    1    1    2    0    0 -0.76184505450E+02  0.10741308629E+02  0.56906321827E+02  0.12500000000E+03  0.80419002446E+02 0. -1.
        -24    1    1    2    0    0  0.76184505450E+02 -0.10741308629E+02 -0.56906321827E+02  0.12500000000E+03  0.80419002446E+02 0.  1.
</event>
<event>
 4    1  0.1586888E-001  0.1250000E+03  0.7546771E-02  0.1126479E+00
        -11   -1    0    0    0    0  0.00000000000E+00  0.00000000000E+00  0.12500000000E+03  0.12500000000E+03  0.00000000000E+00 0.  1.
         11   -1    0    0    0    0 -0.00000000000E+00 -0.00000000000E+00 -0.12500000000E+03  0.12500000000E+03  0.00000000000E+00 0. -1.
         24    1    1    2    0    0 -0.30635481889E+02  0.59310673838E+01  0.90465870552E+02  0.12500000000E+03  0.80419002446E+02 0.  1.
        -24    1    1    2    0    0  0.30635481889E+02 -0.59310673838E+01 -0.90465870552E+02  0.12500000000E+03  0.80419002446E+02 0. -1.
</event>
<event>
 4    1  0.1586888E-001  0.1250000E+03  0.7546771E-02  0.1126479E+00
        -11   -1    0    0    0    0  0.00000000000E+00  0.00000000000E+00  0.12500000000E+03  0.12500000000E+03  0.00000000000E+00 0.  1.
         11   -1    0    0    0    0 -0.00000000000E+00 -0.00000000000E+00 -0.12500000000E+03  0.12500000000E+03  0.00000000000E+00 0. -1.
         24    1    1    2    0    0 -0.19990867208E+02 -0.42157709725E+02  0.83551641424E+02  0.12500000000E+03  0.80419002446E+02 0.  1.
        -24    1    1    2    0    0  0.19990867208E+02  0.42157709725E+02 -0.83551641424E+02  0.12500000000E+03  0.80419002446E+02 0. -1.
</event>
<event>
 4    1  0.1586888E-001  0.1250000E+03  0.7546771E-02  0.1126479E+00
        -11   -1    0    0    0    0  0.00000000000E+00  0.00000000000E+00  0.12500000000E+03  0.12500000000E+03  0.00000000000E+00 0.  1.
         11   -1    0    0    0    0 -0.00000000000E+00 -0.00000000000E+00 -0.12500000000E+03  0.12500000000E+03  0.00000000000E+00 0. -1.
         24    1    1    2    0    0  0.30618487551E+02 -0.59126973579E+02  0.68733494463E+02  0.12500000000E+03  0.80419002446E+02 0.  1.
        -24    1    1    2    0    0 -0.30618487551E+02  0.59126973579E+02 -0.68733494463E+02  0.12500000000E+03  0.80419002446E+02 0. -1.
</event>
<event>
 4    1  0.1586888E-001  0.1250000E+03  0.7546771E-02  0.1126479E+00
        -11   -1    0    0    0    0  0.00000000000E+00  0.00000000000E+00  0.12500000000E+03  0.12500000000E+03  0.00000000000E+00 0.  1.
         11   -1    0    0    0    0 -0.00000000000E+00 -0.00000000000E+00 -0.12500000000E+03  0.12500000000E+03  0.00000000000E+00 0. -1.
         24    1    1    2    0    0  0.86671732025E+01  0.33602808016E+02  0.89182483974E+02  0.12500000000E+03  0.80419002446E+02 0.  1.
        -24    1    1    2    0    0 -0.86671732025E+01 -0.33602808016E+02 -0.89182483974E+02  0.12500000000E+03  0.80419002446E+02 0. -1.
</event>
<event>
 4    1  0.1586888E-001  0.1250000E+03  0.7546771E-02  0.1126479E+00
        -11   -1    0    0    0    0  0.00000000000E+00  0.00000000000E+00  0.12500000000E+03  0.12500000000E+03  0.00000000000E+00 0.  1.
         11   -1    0    0    0    0 -0.00000000000E+00 -0.00000000000E+00 -0.12500000000E+03  0.12500000000E+03  0.00000000000E+00 0. -1.
         24    1    1    2    0    0 -0.77606976335E+01 -0.36395294655E+02  0.88164267960E+02  0.12500000000E+03  0.80419002446E+02 0.  1.
        -24    1    1    2    0    0  0.77606976335E+01  0.36395294655E+02 -0.88164267960E+02  0.12500000000E+03  0.80419002446E+02 0. -1.
</event>
<event>
 4    1  0.1586888E-001  0.1250000E+03  0.7546771E-02  0.1126479E+00
        -11   -1    0    0    0    0  0.00000000000E+00  0.00000000000E+00  0.12500000000E+03  0.12500000000E+03  0.00000000000E+00 0.  1.
         11   -1    0    0    0    0 -0.00000000000E+00 -0.00000000000E+00 -0.12500000000E+03  0.12500000000E+03  0.00000000000E+00 0. -1.
         24    1    1    2    0    0  0.31832521660E+02 -0.49969458417E+02  0.75150035502E+02  0.12500000000E+03  0.80419002446E+02 0.  1.
        -24    1    1    2    0    0 -0.31832521660E+02  0.49969458417E+02 -0.75150035502E+02  0.12500000000E+03  0.80419002446E+02 0. -1.
</event>
<event>
 4    1  0.1586888E-001  0.1250000E+03  0.7546771E-02  0.1126479E+00
        -11   -1    0    0    0    0  0.00000000000E+00  0.00000000000E+00  0.12500000000E+03  0.12500000000E+03  0.00000000000E+00 0.  1.
         11   -1    0    0    0    0 -0.00000000000E+00 -0.00000000000E+00 -0.12500000000E+03  0.12500000000E+03  0.00000000000E+00 0. -1.
         24    1    1    2    0    0  0.43563866081E+02 -0.60694970129E+02  0.59800453332E+02  0.12500000000E+03  0.80419002446E+02 0.  1.
        -24    1    1    2    0    0 -0.43563866081E+02  0.60694970129E+02 -0.59800453332E+02  0.12500000000E+03  0.80419002446E+02 0. -1.
</event>
<event>
 4    1  0.1586888E-001  0.1250000E+03  0.7546771E-02  0.1126479E+00
        -11   -1    0    0    0    0  0.00000000000E+00  0.00000000000E+00  0.12500000000E+03  0.12500000000E+03  0.00000000000E+00 0.  1.
         11   -1    0    0    0    0 -0.00000000000E+00 -0.00000000000E+00 -0.12500000000E+03  0.12500000000E+03  0.00000000000E+00 0. -1.
         24    1    1    2    0    0 -0.55115263926E+02 -0.72431262952E+02  0.29560173799E+02  0.12500000000E+03  0.80419002446E+02 0.  1.
        -24    1    1    2    0    0  0.55115263926E+02  0.72431262952E+02 -0.29560173799E+02  0.12500000000E+03  0.80419002446E+02 0. -1.
</event>
<event>
 4    1  0.1586888E-001  0.1250000E+03  0.7546771E-02  0.1126479E+00
        -11   -1    0    0    0    0  0.00000000000E+00  0.00000000000E+00  0.12500000000E+03  0.12500000000E+03  0.00000000000E+00 0.  1.
         11   -1    0    0    0    0 -0.00000000000E+00 -0.00000000000E+00 -0.12500000000E+03  0.12500000000E+03  0.00000000000E+00 0. -1.
         24    1    1    2    0    0 -0.38725477872E+02 -0.28781886842E+02  0.82642146626E+02  0.12500000000E+03  0.80419002446E+02 0.  1.
        -24    1    1    2    0    0  0.38725477872E+02  0.28781886842E+02 -0.82642146626E+02  0.12500000000E+03  0.80419002446E+02 0. -1.
</event>
<event>
 4    1  0.1586888E-001  0.1250000E+03  0.7546771E-02  0.1126479E+00
        -11   -1    0    0    0    0  0.00000000000E+00  0.00000000000E+00  0.12500000000E+03  0.12500000000E+03  0.00000000000E+00 0.  1.
         11   -1    0    0    0    0 -0.00000000000E+00 -0.00000000000E+00 -0.12500000000E+03  0.12500000000E+03  0.00000000000E+00 0. -1.
         24    1    1    2    0    0 -0.15383239263E+02  0.45432983192E+02  0.82806908128E+02  0.12500000000E+03  0.80419002446E+02 0.  1.
        -24    1    1    2    0    0  0.15383239263E+02 -0.45432983192E+02 -0.82806908128E+02  0.12500000000E+03  0.80419002446E+02 0. -1.
</event>
<event>
 4    1  0.1586888E-001  0.1250000E+03  0.7546771E-02  0.1126479E+00
        -11   -1    0    0    0    0  0.00000000000E+00  0.00000000000E+00  0.12500000000E+03  0.12500000000E+03  0.00000000000E+00 0.  1.
         11   -1    0    0    0    0 -0.00000000000E+00 -0.00000000000E+00 -0.12500000000E+03  0.12500000000E+03  0.00000000000E+00 0. -1.
         24    1    1    2    0    0 -0.43196542318E+01 -0.11347629805E+01  0.95592033904E+02  0.12500000000E+03  0.80419002446E+02 0.  0.
        -24    1    1    2    0    0  0.43196542318E+01  0.11347629805E+01 -0.95592033904E+02  0.12500000000E+03  0.80419002446E+02 0. -1.
</event>
<event>
 4    1  0.1586888E-001  0.1250000E+03  0.7546771E-02  0.1126479E+00
        -11   -1    0    0    0    0  0.00000000000E+00  0.00000000000E+00  0.12500000000E+03  0.12500000000E+03  0.00000000000E+00 0.  1.
         11   -1    0    0    0    0 -0.00000000000E+00 -0.00000000000E+00 -0.12500000000E+03  0.12500000000E+03  0.00000000000E+00 0. -1.
         24    1    1    2    0    0 -0.39136788211E+02  0.49144549632E+02  0.72186626848E+02  0.12500000000E+03  0.80419002446E+02 0. -1.
        -24    1    1    2    0    0  0.39136788211E+02 -0.49144549632E+02 -0.72186626848E+02  0.12500000000E+03  0.80419002446E+02 0.  1.
</event>
<event>
 4    1  0.1586888E-001  0.1250000E+03  0.7546771E-02  0.1126479E+00
        -11   -1    0    0    0    0  0.00000000000E+00  0.00000000000E+00  0.12500000000E+03  0.12500000000E+03  0.00000000000E+00 0.  1.
         11   -1    0    0    0    0 -0.00000000000E+00 -0.00000000000E+00 -0.12500000000E+03  0.12500000000E+03  0.00000000000E+00 0. -1.
         24    1    1    2    0    0 -0.92740195347E+02  0.19332350552E+02  0.13538849093E+02  0.12500000000E+03  0.80419002446E+02 0.  1.
        -24    1    1    2    0    0  0.92740195347E+02 -0.19332350552E+02 -0.13538849093E+02  0.12500000000E+03  0.80419002446E+02 0. -1.
</event>
<event>
 4    1  0.1586888E-001  0.1250000E+03  0.7546771E-02  0.1126479E+00
        -11   -1    0    0    0    0  0.00000000000E+00  0.00000000000E+00  0.12500000000E+03  0.12500000000E+03  0.00000000000E+00 0.  1.
         11   -1    0    0    0    0 -0.00000000000E+00 -0.00000000000E+00 -0.12500000000E+03  0.12500000000E+03  0.00000000000E+00 0. -1.
         24    1    1    2    0    0 -0.43047454119E+02  0.11758637585E+02  0.84654800110E+02  0.12500000000E+03  0.80419002446E+02 0.  1.
        -24    1    1    2    0    0  0.43047454119E+02 -0.11758637585E+02 -0.84654800110E+02  0.12500000000E+03  0.80419002446E+02 0. -1.
</event>
<event>
 4    1  0.1586888E-001  0.1250000E+03  0.7546771E-02  0.1126479E+00
        -11   -1    0    0    0    0  0.00000000000E+00  0.00000000000E+00  0.12500000000E+03  0.12500000000E+03  0.00000000000E+00 0.  1.
         11   -1    0    0    0    0 -0.00000000000E+00 -0.00000000000E+00 -0.12500000000E+03  0.12500000000E+03  0.00000000000E+00 0. -1.
         24    1    1    2    0    0 -0.11004293145E+02 -0.76772015105E+01  0.94750990259E+02  0.12500000000E+03  0.80419002446E+02 0.  1.
        -24    1    1    2    0    0  0.11004293145E+02  0.76772015105E+01 -0.94750990259E+02  0.12500000000E+03  0.80419002446E+02 0. -1.
</event>
<event>
 4    1  0.1586888E-001  0.1250000E+03  0.7546771E-02  0.1126479E+00
        -11   -1    0    0    0    0  0.00000000000E+00  0.00000000000E+00  0.12500000000E+03  0.12500000000E+03  0.00000000000E+00 0.  1.
         11   -1    0    0    0    0 -0.00000000000E+00 -0.00000000000E+00 -0.12500000000E+03  0.12500000000E+03  0.00000000000E+00 0. -1.
         24    1    1    2    0    0 -0.70667058553E+02  0.23116819650E+02  0.60245859031E+02  0.12500000000E+03  0.80419002446E+02 0.  1.
        -24    1    1    2    0    0  0.70667058553E+02 -0.23116819650E+02 -0.60245859031E+02  0.12500000000E+03  0.80419002446E+02 0. -1.
</event>
<event>
 4    1  0.1586888E-001  0.1250000E+03  0.7546771E-02  0.1126479E+00
        -11   -1    0    0    0    0  0.00000000000E+00  0.00000000000E+00  0.12500000000E+03  0.12500000000E+03  0.00000000000E+00 0.  1.
         11   -1    0    0    0    0 -0.00000000000E+00 -0.00000000000E+00 -0.12500000000E+03  0.12500000000E+03  0.00000000000E+00 0. -1.
         24    1    1    2    0    0  0.28824396978E+02  0.52220112270E+02  0.74833134766E+02  0.12500000000E+03  0.80419002446E+02 0.  1.
        -24    1    1    2    0    0 -0.28824396978E+02 -0.52220112270E+02 -0.74833134766E+02  0.12500000000E+03  0.80419002446E+02 0. -1.
</event>
<event>
 4    1  0.1586888E-001  0.1250000E+03  0.7546771E-02  0.1126479E+00
        -11   -1    0    0    0    0  0.00000000000E+00  0.00000000000E+00  0.12500000000E+03  0.12500000000E+03  0.00000000000E+00 0.  1.
         11   -1    0    0    0    0 -0.00000000000E+00 -0.00000000000E+00 -0.12500000000E+03  0.12500000000E+03  0.00000000000E+00 0. -1.
         24    1    1    2    0    0  0.25508587000E+02 -0.26434788453E+02  0.88364574318E+02  0.12500000000E+03  0.80419002446E+02 0.  1.
        -24    1    1    2    0    0 -0.25508587000E+02  0.26434788453E+02 -0.88364574318E+02  0.12500000000E+03  0.80419002446E+02 0. -1.
</event>
<event>
 4    1  0.1586888E-001  0.1250000E+03  0.7546771E-02  0.1126479E+00
        -11   -1    0    0    0    0  0.00000000000E+00  0.00000000000E+00  0.12500000000E+03  0.12500000000E+03  0.00000000000E+00 0.  1.
         11   -1    0    0    0    0 -0.00000000000E+00 -0.00000000000E+00 -0.12500000000E+03  0.12500000000E+03  0.00000000000E+00 0. -1.
         24    1    1    2    0    0 -0.50133832642E+02  0.42539642513E+02  0.69532450590E+02  0.12500000000E+03  0.80419002446E+02 0.  1.
        -24    1    1    2    0    0  0.50133832642E+02 -0.42539642513E+02 -0.69532450590E+02  0.12500000000E+03  0.80419002446E+02 0. -1.
</event>
<event>
 4    1  0.1586888E-001  0.1250000E+03  0.7546771E-02  0.1126479E+00
        -11   -1    0    0    0    0  0.00000000000E+00  0.00000000000E+00  0.12500000000E+03  0.12500000000E+03  0.00000000000E+00 0.  1.
         11   -1    0    0    0    0 -0.00000000000E+00 -0.00000000000E+00 -0.12500000000E+03  0.12500000000E+03  0.00000000000E+00 0. -1.
         24    1    1    2    0    0  0.67228009274E+02  0.54878092949E+01  0.67882713292E+02  0.12500000000E+03  0.80419002446E+02 0.  1.
        -24    1    1    2    0    0 -0.67228009274E+02 -0.54878092949E+01 -0.67882713292E+02  0.12500000000E+03  0.80419002446E+02 0. -1.
</event>
<event>
 4    1  0.1586888E-001  0.1250000E+03  0.7546771E-02  0.1126479E+00
        -11   -1    0    0    0    0  0.00000000000E+00  0.00000000000E+00  0.12500000000E+03  0.12500000000E+03  0.00000000000E+00 0.  1.
         11   -1    0    0    0    0 -0.00000000000E+00 -0.00000000000E+00 -0.12500000000E+03  0.12500000000E+03  0.00000000000E+00 0. -1.
         24    1    1    2    0    0 -0.64270879173E+02 -0.28472957870E+02  0.64933264250E+02  0.12500000000E+03  0.80419002446E+02 0.  1.
        -24    1    1    2    0    0  0.64270879173E+02  0.28472957870E+02 -0.64933264250E+02  0.12500000000E+03  0.80419002446E+02 0. -1.
</event>
<event>
 4    1  0.1586888E-001  0.1250000E+03  0.7546771E-02  0.1126479E+00
        -11   -1    0    0    0    0  0.00000000000E+00  0.00000000000E+00  0.12500000000E+03  0.12500000000E+03  0.00000000000E+00 0.  1.
         11   -1    0    0    0    0 -0.00000000000E+00 -0.00000000000E+00 -0.12500000000E+03  0.12500000000E+03  0.00000000000E+00 0. -1.
         24    1    1    2    0    0 -0.19813867343E+02 -0.14834011897E+02  0.92439963206E+02  0.12500000000E+03  0.80419002446E+02 0.  1.
        -24    1    1    2    0    0  0.19813867343E+02  0.14834011897E+02 -0.92439963206E+02  0.12500000000E+03  0.80419002446E+02 0. -1.
</event>
<event>
 4    1  0.1586888E-001  0.1250000E+03  0.7546771E-02  0.1126479E+00
        -11   -1    0    0    0    0  0.00000000000E+00  0.00000000000E+00  0.12500000000E+03  0.12500000000E+03  0.00000000000E+00 0.  1.
         11   -1    0    0    0    0 -0.00000000000E+00 -0.00000000000E+00 -0.12500000000E+03  0.12500000000E+03  0.00000000000E+00 0. -1.
         24    1    1    2    0    0 -0.46254081153E+02 -0.70623191347E+02 -0.45063387203E+02  0.12500000000E+03  0.80419002446E+02 0. -1.
        -24    1    1    2    0    0  0.46254081153E+02  0.70623191347E+02  0.45063387203E+02  0.12500000000E+03  0.80419002446E+02 0.  1.
</event>
<event>
 4    1  0.1586888E-001  0.1250000E+03  0.7546771E-02  0.1126479E+00
        -11   -1    0    0    0    0  0.00000000000E+00  0.00000000000E+00  0.12500000000E+03  0.12500000000E+03  0.00000000000E+00 0.  1.
         11   -1    0    0    0    0 -0.00000000000E+00 -0.00000000000E+00 -0.12500000000E+03  0.12500000000E+03  0.00000000000E+00 0. -1.
         24    1    1    2    0    0 -0.13354862649E+02  0.33163057025E+00  0.94759282978E+02  0.12500000000E+03  0.80419002446E+02 0.  1.
        -24    1    1    2    0    0  0.13354862649E+02 -0.33163057025E+00 -0.94759282978E+02  0.12500000000E+03  0.80419002446E+02 0. -1.
</event>
<event>
 4    1  0.1586888E-001  0.1250000E+03  0.7546771E-02  0.1126479E+00
        -11   -1    0    0    0    0  0.00000000000E+00  0.00000000000E+00  0.12500000000E+03  0.12500000000E+03  0.00000000000E+00 0.  1.
         11   -1    0    0    0    0 -0.00000000000E+00 -0.00000000000E+00 -0.12500000000E+03  0.12500000000E+03  0.00000000000E+00 0. -1.
         24    1    1    2    0    0  0.28456342832E+02  0.33268731504E+00  0.91366897274E+02  0.12500000000E+03  0.80419002446E+02 0.  1.
        -24    1    1    2    0    0 -0.28456342832E+02 -0.33268731504E+00 -0.91366897274E+02  0.12500000000E+03  0.80419002446E+02 0.  0.
</event>
<event>
 4    1  0.1586888E-001  0.1250000E+03  0.7546771E-02  0.1126479E+00
        -11   -1    0    0    0    0  0.00000000000E+00  0.00000000000E+00  0.12500000000E+03  0.12500000000E+03  0.00000000000E+00 0.  1.
         11   -1    0    0    0    0 -0.00000000000E+00 -0.00000000000E+00 -0.12500000000E+03  0.12500000000E+03  0.00000000000E+00 0. -1.
         24    1    1    2    0    0  0.80852618215E+01  0.19085898007E+02  0.93424520787E+02  0.12500000000E+03  0.80419002446E+02 0.  1.
        -24    1    1    2    0    0 -0.80852618215E+01 -0.19085898007E+02 -0.93424520787E+02  0.12500000000E+03  0.80419002446E+02 0.  0.
</event>
<event>
 4    1  0.1586888E-001  0.1250000E+03  0.7546771E-02  0.1126479E+00
        -11   -1    0    0    0    0  0.00000000000E+00  0.00000000000E+00  0.12500000000E+03  0.12500000000E+03  0.00000000000E+00 0.  1.
         11   -1    0    0    0    0 -0.00000000000E+00 -0.00000000000E+00 -0.12500000000E+03  0.12500000000E+03  0.00000000000E+00 0. -1.
         24    1    1    2    0    0  0.11990239844E+01 -0.47926917878E+02  0.82821234776E+02  0.12500000000E+03  0.80419002446E+02 0.  1.
        -24    1    1    2    0    0 -0.11990239844E+01  0.47926917878E+02 -0.82821234776E+02  0.12500000000E+03  0.80419002446E+02 0. -1.
</event>
<event>
 4    1  0.1586888E-001  0.1250000E+03  0.7546771E-02  0.1126479E+00
        -11   -1    0    0    0    0  0.00000000000E+00  0.00000000000E+00  0.12500000000E+03  0.12500000000E+03  0.00000000000E+00 0.  1.
         11   -1    0    0    0    0 -0.00000000000E+00 -0.00000000000E+00 -0.12500000000E+03  0.12500000000E+03  0.00000000000E+00 0. -1.
         24    1    1    2    0    0 -0.24911688679E+02 -0.14119080401E+02  0.91311792127E+02  0.12500000000E+03  0.80419002446E+02 0.  1.
        -24    1    1    2    0    0  0.24911688679E+02  0.14119080401E+02 -0.91311792127E+02  0.12500000000E+03  0.80419002446E+02 0. -1.
</event>
<event>
 4    1  0.1586888E-001  0.1250000E+03  0.7546771E-02  0.1126479E+00
        -11   -1    0    0    0    0  0.00000000000E+00  0.00000000000E+00  0.12500000000E+03  0.12500000000E+03  0.00000000000E+00 0.  1.
         11   -1    0    0    0    0 -0.00000000000E+00 -0.00000000000E+00 -0.12500000000E+03  0.12500000000E+03  0.00000000000E+00 0. -1.
         24    1    1    2    0    0 -0.65855843416E+00  0.33547964973E+02  0.89620781031E+02  0.12500000000E+03  0.80419002446E+02 0.  1.
        -24    1    1    2    0    0  0.65855843416E+00 -0.33547964973E+02 -0.89620781031E+02  0.12500000000E+03  0.80419002446E+02 0. -1.
</event>
<event>
 4    1  0.1586888E-001  0.1250000E+03  0.7546771E-02  0.1126479E+00
        -11   -1    0    0    0    0  0.00000000000E+00  0.00000000000E+00  0.12500000000E+03  0.12500000000E+03  0.00000000000E+00 0.  1.
         11   -1    0    0    0    0 -0.00000000000E+00 -0.00000000000E+00 -0.12500000000E+03  0.12500000000E+03  0.00000000000E+00 0. -1.
         24    1    1    2    0    0 -0.64927081917E+02 -0.61207842356E+01  0.70034235055E+02  0.12500000000E+03  0.80419002446E+02 0.  1.
        -24    1    1    2    0    0  0.64927081917E+02  0.61207842356E+01 -0.70034235055E+02  0.12500000000E+03  0.80419002446E+02 0. -1.
</event>
<event>
 4    1  0.1586888E-001  0.1250000E+03  0.7546771E-02  0.1126479E+00
        -11   -1    0    0    0    0  0.00000000000E+00  0.00000000000E+00  0.12500000000E+03  0.12500000000E+03  0.00000000000E+00 0.  1.
         11   -1    0    0    0    0 -0.00000000000E+00 -0.00000000000E+00 -0.12500000000E+03  0.12500000000E+03  0.00000000000E+00 0. -1.
         24    1    1    2    0    0 -0.30102607735E+02  0.88049802510E+02 -0.22334935215E+02  0.12500000000E+03  0.80419002446E+02 0.  1.
        -24    1    1    2    0    0  0.30102607735E+02 -0.88049802510E+02  0.22334935215E+02  0.12500000000E+03  0.80419002446E+02 0. -1.
</event>
<event>
 4    1  0.1586888E-001  0.1250000E+03  0.7546771E-02  0.1126479E+00
        -11   -1    0    0    0    0  0.00000000000E+00  0.00000000000E+00  0.12500000000E+03  0.12500000000E+03  0.00000000000E+00 0.  1.
         11   -1    0    0    0    0 -0.00000000000E+00 -0.00000000000E+00 -0.12500000000E+03  0.12500000000E+03  0.00000000000E+00 0. -1.
         24    1    1    2    0    0 -0.20093963393E+02  0.40337781397E+02  0.84420850936E+02  0.12500000000E+03  0.80419002446E+02 0.  1.
        -24    1    1    2    0    0  0.20093963393E+02 -0.40337781397E+02 -0.84420850936E+02  0.12500000000E+03  0.80419002446E+02 0. -1.
</event>
<event>
 4    1  0.1586888E-001  0.1250000E+03  0.7546771E-02  0.1126479E+00
        -11   -1    0    0    0    0  0.00000000000E+00  0.00000000000E+00  0.12500000000E+03  0.12500000000E+03  0.00000000000E+00 0.  1.
         11   -1    0    0    0    0 -0.00000000000E+00 -0.00000000000E+00 -0.12500000000E+03  0.12500000000E+03  0.00000000000E+00 0. -1.
         24    1    1    2    0    0 -0.16142841408E+01  0.30621570367E+02  0.90650414012E+02  0.12500000000E+03  0.80419002446E+02 0.  1.
        -24    1    1    2    0    0  0.16142841408E+01 -0.30621570367E+02 -0.90650414012E+02  0.12500000000E+03  0.80419002446E+02 0. -1.
</event>
<event>
 4    1  0.1586888E-001  0.1250000E+03  0.7546771E-02  0.1126479E+00
        -11   -1    0    0    0    0  0.00000000000E+00  0.00000000000E+00  0.12500000000E+03  0.12500000000E+03  0.00000000000E+00 0.  1.
         11   -1    0    0    0    0 -0.00000000000E+00 -0.00000000000E+00 -0.12500000000E+03  0.12500000000E+03  0.00000000000E+00 0. -1.
         24    1    1    2    0    0 -0.19527785713E+02 -0.20436768123E+02  0.91426408326E+02  0.12500000000E+03  0.80419002446E+02 0.  1.
        -24    1    1    2    0    0  0.19527785713E+02  0.20436768123E+02 -0.91426408326E+02  0.12500000000E+03  0.80419002446E+02 0. -1.
</event>
<event>
 4    1  0.1586888E-001  0.1250000E+03  0.7546771E-02  0.1126479E+00
        -11   -1    0    0    0    0  0.00000000000E+00  0.00000000000E+00  0.12500000000E+03  0.12500000000E+03  0.00000000000E+00 0.  1.
         11   -1    0    0    0    0 -0.00000000000E+00 -0.00000000000E+00 -0.12500000000E+03  0.12500000000E+03  0.00000000000E+00 0. -1.
         24    1    1    2    0    0 -0.32952000710E+02 -0.20126630067E+02  0.87560655874E+02  0.12500000000E+03  0.80419002446E+02 0.  1.
        -24    1    1    2    0    0  0.32952000710E+02  0.20126630067E+02 -0.87560655874E+02  0.12500000000E+03  0.80419002446E+02 0. -1.
</event>
<event>
 4    1  0.1586888E-001  0.1250000E+03  0.7546771E-02  0.1126479E+00
        -11   -1    0    0    0    0  0.00000000000E+00  0.00000000000E+00  0.12500000000E+03  0.12500000000E+03  0.00000000000E+00 0.  1.
         11   -1    0    0    0    0 -0.00000000000E+00 -0.00000000000E+00 -0.12500000000E+03  0.12500000000E+03  0.00000000000E+00 0. -1.
         24    1    1    2    0    0  0.10446873616E+02 -0.70752224744E+02  0.63582777315E+02  0.12500000000E+03  0.80419002446E+02 0.  1.
        -24    1    1    2    0    0 -0.10446873616E+02  0.70752224744E+02 -0.63582777315E+02  0.12500000000E+03  0.80419002446E+02 0. -1.
</event>
<event>
 4    1  0.1586888E-001  0.1250000E+03  0.7546771E-02  0.1126479E+00
        -11   -1    0    0    0    0  0.00000000000E+00  0.00000000000E+00  0.12500000000E+03  0.12500000000E+03  0.00000000000E+00 0.  1.
         11   -1    0    0    0    0 -0.00000000000E+00 -0.00000000000E+00 -0.12500000000E+03  0.12500000000E+03  0.00000000000E+00 0. -1.
         24    1    1    2    0    0 -0.59455345612E+02 -0.53451263297E+01 -0.74794889854E+02  0.12500000000E+03  0.80419002446E+02 0.  0.
        -24    1    1    2    0    0  0.59455345612E+02  0.53451263297E+01  0.74794889854E+02  0.12500000000E+03  0.80419002446E+02 0.  1.
</event>
<event>
 4    1  0.1586888E-001  0.1250000E+03  0.7546771E-02  0.1126479E+00
        -11   -1    0    0    0    0  0.00000000000E+00  0.00000000000E+00  0.12500000000E+03  0.12500000000E+03  0.00000000000E+00 0.  1.
         11   -1    0    0    0    0 -0.00000000000E+00 -0.00000000000E+00 -0.12500000000E+03  0.12500000000E+03  0.00000000000E+00 0. -1.
         24    1    1    2    0    0 -0.35678656928E+02  0.42232769965E+02  0.78110246617E+02  0.12500000000E+03  0.80419002446E+02 0.  1.
        -24    1    1    2    0    0  0.35678656928E+02 -0.42232769965E+02 -0.78110246617E+02  0.12500000000E+03  0.80419002446E+02 0. -1.
</event>
<event>
 4    1  0.1586888E-001  0.1250000E+03  0.7546771E-02  0.1126479E+00
        -11   -1    0    0    0    0  0.00000000000E+00  0.00000000000E+00  0.12500000000E+03  0.12500000000E+03  0.00000000000E+00 0.  1.
         11   -1    0    0    0    0 -0.00000000000E+00 -0.00000000000E+00 -0.12500000000E+03  0.12500000000E+03  0.00000000000E+00 0. -1.
         24    1    1    2    0    0 -0.22471219089E+02 -0.34266081309E+02  0.86479269366E+02  0.12500000000E+03  0.80419002446E+02 0.  1.
        -24    1    1    2    0    0  0.22471219089E+02  0.34266081309E+02 -0.86479269366E+02  0.12500000000E+03  0.80419002446E+02 0. -1.
</event>
<event>
 4    1  0.1586888E-001  0.1250000E+03  0.7546771E-02  0.1126479E+00
        -11   -1    0    0    0    0  0.00000000000E+00  0.00000000000E+00  0.12500000000E+03  0.12500000000E+03  0.00000000000E+00 0.  1.
         11   -1    0    0    0    0 -0.00000000000E+00 -0.00000000000E+00 -0.12500000000E+03  0.12500000000E+03  0.00000000000E+00 0. -1.
         24    1    1    2    0    0  0.73502462084E+02 -0.38100371800E+02  0.47995143317E+02  0.12500000000E+03  0.80419002446E+02 0.  1.
        -24    1    1    2    0    0 -0.73502462084E+02  0.38100371800E+02 -0.47995143317E+02  0.12500000000E+03  0.80419002446E+02 0. -1.
</event>
<event>
 4    1  0.1586888E-001  0.1250000E+03  0.7546771E-02  0.1126479E+00
        -11   -1    0    0    0    0  0.00000000000E+00  0.00000000000E+00  0.12500000000E+03  0.12500000000E+03  0.00000000000E+00 0.  1.
         11   -1    0    0    0    0 -0.00000000000E+00 -0.00000000000E+00 -0.12500000000E+03  0.12500000000E+03  0.00000000000E+00 0. -1.
         24    1    1    2    0    0  0.81107562217E+02 -0.18485866873E+02  0.47303489542E+02  0.12500000000E+03  0.80419002446E+02 0. -1.
        -24    1    1    2    0    0 -0.81107562217E+02  0.18485866873E+02 -0.47303489542E+02  0.12500000000E+03  0.80419002446E+02 0.  1.
</event>
<event>
 4    1  0.1586888E-001  0.1250000E+03  0.7546771E-02  0.1126479E+00
        -11   -1    0    0    0    0  0.00000000000E+00  0.00000000000E+00  0.12500000000E+03  0.12500000000E+03  0.00000000000E+00 0.  1.
         11   -1    0    0    0    0 -0.00000000000E+00 -0.00000000000E+00 -0.12500000000E+03  0.12500000000E+03  0.00000000000E+00 0. -1.
         24    1    1    2    0    0  0.68019861221E+01 -0.67757420783E+02  0.67234284107E+02  0.12500000000E+03  0.80419002446E+02 0.  1.
        -24    1    1    2    0    0 -0.68019861221E+01  0.67757420783E+02 -0.67234284107E+02  0.12500000000E+03  0.80419002446E+02 0. -1.
</event>
<event>
 4    1  0.1586888E-001  0.1250000E+03  0.7546771E-02  0.1126479E+00
        -11   -1    0    0    0    0  0.00000000000E+00  0.00000000000E+00  0.12500000000E+03  0.12500000000E+03  0.00000000000E+00 0.  1.
         11   -1    0    0    0    0 -0.00000000000E+00 -0.00000000000E+00 -0.12500000000E+03  0.12500000000E+03  0.00000000000E+00 0. -1.
         24    1    1    2    0    0 -0.63192603826E+01 -0.61830179010E+01  0.95287046777E+02  0.12500000000E+03  0.80419002446E+02 0.  1.
        -24    1    1    2    0    0  0.63192603826E+01  0.61830179010E+01 -0.95287046777E+02  0.12500000000E+03  0.80419002446E+02 0. -1.
</event>
<event>
 4    1  0.1586888E-001  0.1250000E+03  0.7546771E-02  0.1126479E+00
        -11   -1    0    0    0    0  0.00000000000E+00  0.00000000000E+00  0.12500000000E+03  0.12500000000E+03  0.00000000000E+00 0.  1.
         11   -1    0    0    0    0 -0.00000000000E+00 -0.00000000000E+00 -0.12500000000E+03  0.12500000000E+03  0.00000000000E+00 0. -1.
         24    1    1    2    0    0  0.10497340775E+02  0.26391863560E+02  0.91384131118E+02  0.12500000000E+03  0.80419002446E+02 0.  1.
        -24    1    1    2    0    0 -0.10497340775E+02 -0.26391863560E+02 -0.91384131118E+02  0.12500000000E+03  0.80419002446E+02 0. -1.
</event>
<event>
 4    1  0.1586888E-001  0.1250000E+03  0.7546771E-02  0.1126479E+00
        -11   -1    0    0    0    0  0.00000000000E+00  0.00000000000E+00  0.12500000000E+03  0.12500000000E+03  0.00000000000E+00 0.  1.
         11   -1    0    0    0    0 -0.00000000000E+00 -0.00000000000E+00 -0.12500000000E+03  0.12500000000E+03  0.00000000000E+00 0. -1.
         24    1    1    2    0    0  0.53584501653E+02  0.19179356239E+02  0.76932681758E+02  0.12500000000E+03  0.80419002446E+02 0.  0.
        -24    1    1    2    0    0 -0.53584501653E+02 -0.19179356239E+02 -0.76932681758E+02  0.12500000000E+03  0.80419002446E+02 0.  1.
</event>
<event>
 4    1  0.1586888E-001  0.1250000E+03  0.7546771E-02  0.1126479E+00
        -11   -1    0    0    0    0  0.00000000000E+00  0.00000000000E+00  0.12500000000E+03  0.12500000000E+03  0.00000000000E+00 0.  1.
         11   -1    0    0    0    0 -0.00000000000E+00 -0.00000000000E+00 -0.12500000000E+03  0.12500000000E+03  0.00000000000E+00 0. -1.
         24    1    1    2    0    0 -0.45126211152E+02  0.10495622167E+02  0.83733213410E+02  0.12500000000E+03  0.80419002446E+02 0.  1.
        -24    1    1    2    0    0  0.45126211152E+02 -0.10495622167E+02 -0.83733213410E+02  0.12500000000E+03  0.80419002446E+02 0. -1.
</event>
<event>
 4    1  0.1586888E-001  0.1250000E+03  0.7546771E-02  0.1126479E+00
        -11   -1    0    0    0    0  0.00000000000E+00  0.00000000000E+00  0.12500000000E+03  0.12500000000E+03  0.00000000000E+00 0.  1.
         11   -1    0    0    0    0 -0.00000000000E+00 -0.00000000000E+00 -0.12500000000E+03  0.12500000000E+03  0.00000000000E+00 0. -1.
         24    1    1    2    0    0 -0.16540516179E+01  0.49102740188E+02  0.82121672321E+02  0.12500000000E+03  0.80419002446E+02 0.  1.
        -24    1    1    2    0    0  0.16540516179E+01 -0.49102740188E+02 -0.82121672321E+02  0.12500000000E+03  0.80419002446E+02 0. -1.
</event>
<event>
 4    1  0.1586888E-001  0.1250000E+03  0.7546771E-02  0.1126479E+00
        -11   -1    0    0    0    0  0.00000000000E+00  0.00000000000E+00  0.12500000000E+03  0.12500000000E+03  0.00000000000E+00 0.  1.
         11   -1    0    0    0    0 -0.00000000000E+00 -0.00000000000E+00 -0.12500000000E+03  0.12500000000E+03  0.00000000000E+00 0. -1.
         24    1    1    2    0    0  0.11281584659E+02 -0.58180441611E+01  0.94850726172E+02  0.12500000000E+03  0.80419002446E+02 0.  0.
        -24    1    1    2    0    0 -0.11281584659E+02  0.58180441611E+01 -0.94850726172E+02  0.12500000000E+03  0.80419002446E+02 0. -1.
</event>
<event>
 4    1  0.1586888E-001  0.1250000E+03  0.7546771E-02  0.1126479E+00
        -11   -1    0    0    0    0  0.00000000000E+00  0.00000000000E+00  0.12500000000E+03  0.12500000000E+03  0.00000000000E+00 0.  1.
         11   -1    0    0    0    0 -0.00000000000E+00 -0.00000000000E+00 -0.12500000000E+03  0.12500000000E+03  0.00000000000E+00 0. -1.
         24    1    1    2    0    0  0.71400078685E+02  0.32126257112E+02  0.55024689126E+02  0.12500000000E+03  0.80419002446E+02 0.  1.
        -24    1    1    2    0    0 -0.71400078685E+02 -0.32126257112E+02 -0.55024689126E+02  0.12500000000E+03  0.80419002446E+02 0.  0.
</event>
<event>
 4    1  0.1586888E-001  0.1250000E+03  0.7546771E-02  0.1126479E+00
        -11   -1    0    0    0    0  0.00000000000E+00  0.00000000000E+00  0.12500000000E+03  0.12500000000E+03  0.00000000000E+00 0.  1.
         11   -1    0    0    0    0 -0.00000000000E+00 -0.00000000000E+00 -0.12500000000E+03  0.12500000000E+03  0.00000000000E+00 0. -1.
         24    1    1    2    0    0  0.31457020598E+01  0.22279618223E+02  0.93013478679E+02  0.12500000000E+03  0.80419002446E+02 0.  0.
        -24    1    1    2    0    0 -0.31457020598E+01 -0.22279618223E+02 -0.93013478679E+02  0.12500000000E+03  0.80419002446E+02 0.  0.
</event>
<event>
 4    1  0.1586888E-001  0.1250000E+03  0.7546771E-02  0.1126479E+00
        -11   -1    0    0    0    0  0.00000000000E+00  0.00000000000E+00  0.12500000000E+03  0.12500000000E+03  0.00000000000E+00 0.  1.
         11   -1    0    0    0    0 -0.00000000000E+00 -0.00000000000E+00 -0.12500000000E+03  0.12500000000E+03  0.00000000000E+00 0. -1.
         24    1    1    2    0    0 -0.37336684379E+02  0.34408937102E+02  0.81115849824E+02  0.12500000000E+03  0.80419002446E+02 0.  1.
        -24    1    1    2    0    0  0.37336684379E+02 -0.34408937102E+02 -0.81115849824E+02  0.12500000000E+03  0.80419002446E+02 0. -1.
</event>
<event>
 4    1  0.1586888E-001  0.1250000E+03  0.7546771E-02  0.1126479E+00
        -11   -1    0    0    0    0  0.00000000000E+00  0.00000000000E+00  0.12500000000E+03  0.12500000000E+03  0.00000000000E+00 0.  1.
         11   -1    0    0    0    0 -0.00000000000E+00 -0.00000000000E+00 -0.12500000000E+03  0.12500000000E+03  0.00000000000E+00 0. -1.
         24    1    1    2    0    0  0.96872513118E+01 -0.80256863161E+02  0.51213056180E+02  0.12500000000E+03  0.80419002446E+02 0.  0.
        -24    1    1    2    0    0 -0.96872513118E+01  0.80256863161E+02 -0.51213056180E+02  0.12500000000E+03  0.80419002446E+02 0.  1.
</event>
<event>
 4    1  0.1586888E-001  0.1250000E+03  0.7546771E-02  0.1126479E+00
        -11   -1    0    0    0    0  0.00000000000E+00  0.00000000000E+00  0.12500000000E+03  0.12500000000E+03  0.00000000000E+00 0.  1.
         11   -1    0    0    0    0 -0.00000000000E+00 -0.00000000000E+00 -0.12500000000E+03  0.12500000000E+03  0.00000000000E+00 0. -1.
         24    1    1    2    0    0 -0.82288095091E+02  0.48722249050E+02  0.35490702297E+01  0.12500000000E+03  0.80419002446E+02 0.  1.
        -24    1    1    2    0    0  0.82288095091E+02 -0.48722249050E+02 -0.35490702297E+01  0.12500000000E+03  0.80419002446E+02 0. -1.
</event>
<event>
 4    1  0.1586888E-001  0.1250000E+03  0.7546771E-02  0.1126479E+00
        -11   -1    0    0    0    0  0.00000000000E+00  0.00000000000E+00  0.12500000000E+03  0.12500000000E+03  0.00000000000E+00 0.  1.
         11   -1    0    0    0    0 -0.00000000000E+00 -0.00000000000E+00 -0.12500000000E+03  0.12500000000E+03  0.00000000000E+00 0. -1.
         24    1    1    2    0    0  0.42002604717E+02 -0.36832862816E+02  0.77697525439E+02  0.12500000000E+03  0.80419002446E+02 0.  1.
        -24    1    1    2    0    0 -0.42002604717E+02  0.36832862816E+02 -0.77697525439E+02  0.12500000000E+03  0.80419002446E+02 0. -1.
</event>
<event>
 4    1  0.1586888E-001  0.1250000E+03  0.7546771E-02  0.1126479E+00
        -11   -1    0    0    0    0  0.00000000000E+00  0.00000000000E+00  0.12500000000E+03  0.12500000000E+03  0.00000000000E+00 0.  1.
         11   -1    0    0    0    0 -0.00000000000E+00 -0.00000000000E+00 -0.12500000000E+03  0.12500000000E+03  0.00000000000E+00 0. -1.
         24    1    1    2    0    0  0.30523170223E+02  0.21183915440E+01  0.90673218441E+02  0.12500000000E+03  0.80419002446E+02 0.  1.
        -24    1    1    2    0    0 -0.30523170223E+02 -0.21183915440E+01 -0.90673218441E+02  0.12500000000E+03  0.80419002446E+02 0. -1.
</event>
<event>
 4    1  0.1586888E-001  0.1250000E+03  0.7546771E-02  0.1126479E+00
        -11   -1    0    0    0    0  0.00000000000E+00  0.00000000000E+00  0.12500000000E+03  0.12500000000E+03  0.00000000000E+00 0.  1.
         11   -1    0    0    0    0 -0.00000000000E+00 -0.00000000000E+00 -0.12500000000E+03  0.12500000000E+03  0.00000000000E+00 0. -1.
         24    1    1    2    0    0  0.36246204330E+02  0.63489617030E+02  0.61750022240E+02  0.12500000000E+03  0.80419002446E+02 0.  1.
        -24    1    1    2    0    0 -0.36246204330E+02 -0.63489617030E+02 -0.61750022240E+02  0.12500000000E+03  0.80419002446E+02 0. -1.
</event>
<event>
 4    1  0.1586888E-001  0.1250000E+03  0.7546771E-02  0.1126479E+00
        -11   -1    0    0    0    0  0.00000000000E+00  0.00000000000E+00  0.12500000000E+03  0.12500000000E+03  0.00000000000E+00 0.  1.
         11   -1    0    0    0    0 -0.00000000000E+00 -0.00000000000E+00 -0.12500000000E+03  0.12500000000E+03  0.00000000000E+00 0. -1.
         24    1    1    2    0    0 -0.64992238106E+02  0.63509827508E+02  0.30004913622E+02  0.12500000000E+03  0.80419002446E+02 0. -1.
        -24    1    1    2    0    0  0.64992238106E+02 -0.63509827508E+02 -0.30004913622E+02  0.12500000000E+03  0.80419002446E+02 0.  1.
</event>
<event>
 4    1  0.1586888E-001  0.1250000E+03  0.7546771E-02  0.1126479E+00
        -11   -1    0    0    0    0  0.00000000000E+00  0.00000000000E+00  0.12500000000E+03  0.12500000000E+03  0.00000000000E+00 0.  1.
         11   -1    0    0    0    0 -0.00000000000E+00 -0.00000000000E+00 -0.12500000000E+03  0.12500000000E+03  0.00000000000E+00 0. -1.
         24    1    1    2    0    0 -0.34398230596E+02 -0.87722655805E+02 -0.16711715530E+02  0.12500000000E+03  0.80419002446E+02 0.  1.
        -24    1    1    2    0    0  0.34398230596E+02  0.87722655805E+02  0.16711715530E+02  0.12500000000E+03  0.80419002446E+02 0.  0.
</event>
<event>
 4    1  0.1586888E-001  0.1250000E+03  0.7546771E-02  0.1126479E+00
        -11   -1    0    0    0    0  0.00000000000E+00  0.00000000000E+00  0.12500000000E+03  0.12500000000E+03  0.00000000000E+00 0.  1.
         11   -1    0    0    0    0 -0.00000000000E+00 -0.00000000000E+00 -0.12500000000E+03  0.12500000000E+03  0.00000000000E+00 0. -1.
         24    1    1    2    0    0 -0.75285175409E+02  0.51035632813E+01 -0.58854736863E+02  0.12500000000E+03  0.80419002446E+02 0.  0.
        -24    1    1    2    0    0  0.75285175409E+02 -0.51035632813E+01  0.58854736863E+02  0.12500000000E+03  0.80419002446E+02 0.  0.
</event>
<event>
 4    1  0.1586888E-001  0.1250000E+03  0.7546771E-02  0.1126479E+00
        -11   -1    0    0    0    0  0.00000000000E+00  0.00000000000E+00  0.12500000000E+03  0.12500000000E+03  0.00000000000E+00 0.  1.
         11   -1    0    0    0    0 -0.00000000000E+00 -0.00000000000E+00 -0.12500000000E+03  0.12500000000E+03  0.00000000000E+00 0. -1.
         24    1    1    2    0    0 -0.62691282499E+02  0.34147952651E+02  0.63729933893E+02  0.12500000000E+03  0.80419002446E+02 0.  1.
        -24    1    1    2    0    0  0.62691282499E+02 -0.34147952651E+02 -0.63729933893E+02  0.12500000000E+03  0.80419002446E+02 0. -1.
</event>
<event>
 4    1  0.1586888E-001  0.1250000E+03  0.7546771E-02  0.1126479E+00
        -11   -1    0    0    0    0  0.00000000000E+00  0.00000000000E+00  0.12500000000E+03  0.12500000000E+03  0.00000000000E+00 0.  1.
         11   -1    0    0    0    0 -0.00000000000E+00 -0.00000000000E+00 -0.12500000000E+03  0.12500000000E+03  0.00000000000E+00 0. -1.
         24    1    1    2    0    0  0.16394282668E+02 -0.48737313291E+02  0.80707408796E+02  0.12500000000E+03  0.80419002446E+02 0.  1.
        -24    1    1    2    0    0 -0.16394282668E+02  0.48737313291E+02 -0.80707408796E+02  0.12500000000E+03  0.80419002446E+02 0. -1.
</event>
<event>
 4    1  0.1586888E-001  0.1250000E+03  0.7546771E-02  0.1126479E+00
        -11   -1    0    0    0    0  0.00000000000E+00  0.00000000000E+00  0.12500000000E+03  0.12500000000E+03  0.00000000000E+00 0.  1.
         11   -1    0    0    0    0 -0.00000000000E+00 -0.00000000000E+00 -0.12500000000E+03  0.12500000000E+03  0.00000000000E+00 0. -1.
         24    1    1    2    0    0 -0.18051555899E+02  0.49751570270E+02  0.79728957292E+02  0.12500000000E+03  0.80419002446E+02 0.  1.
        -24    1    1    2    0    0  0.18051555899E+02 -0.49751570270E+02 -0.79728957292E+02  0.12500000000E+03  0.80419002446E+02 0. -1.
</event>
<event>
 4    1  0.1586888E-001  0.1250000E+03  0.7546771E-02  0.1126479E+00
        -11   -1    0    0    0    0  0.00000000000E+00  0.00000000000E+00  0.12500000000E+03  0.12500000000E+03  0.00000000000E+00 0.  1.
         11   -1    0    0    0    0 -0.00000000000E+00 -0.00000000000E+00 -0.12500000000E+03  0.12500000000E+03  0.00000000000E+00 0. -1.
         24    1    1    2    0    0  0.52401469684E+02  0.30566861179E+02  0.74010384529E+02  0.12500000000E+03  0.80419002446E+02 0.  0.
        -24    1    1    2    0    0 -0.52401469684E+02 -0.30566861179E+02 -0.74010384529E+02  0.12500000000E+03  0.80419002446E+02 0. -1.
</event>
<event>
 4    1  0.1586888E-001  0.1250000E+03  0.7546771E-02  0.1126479E+00
        -11   -1    0    0    0    0  0.00000000000E+00  0.00000000000E+00  0.12500000000E+03  0.12500000000E+03  0.00000000000E+00 0.  1.
         11   -1    0    0    0    0 -0.00000000000E+00 -0.00000000000E+00 -0.12500000000E+03  0.12500000000E+03  0.00000000000E+00 0. -1.
         24    1    1    2    0    0  0.77577201832E+01  0.29857344965E+01  0.95334606585E+02  0.12500000000E+03  0.80419002446E+02 0.  1.
        -24    1    1    2    0    0 -0.77577201832E+01 -0.29857344965E+01 -0.95334606585E+02  0.12500000000E+03  0.80419002446E+02 0.  0.
</event>
<event>
 4    1  0.1586888E-001  0.1250000E+03  0.7546771E-02  0.1126479E+00
        -11   -1    0    0    0    0  0.00000000000E+00  0.00000000000E+00  0.12500000000E+03  0.12500000000E+03  0.00000000000E+00 0.  1.
         11   -1    0    0    0    0 -0.00000000000E+00 -0.00000000000E+00 -0.12500000000E+03  0.12500000000E+03  0.00000000000E+00 0. -1.
         24    1    1    2    0    0  0.41184917364E+02  0.80420525043E+02  0.31529760213E+02  0.12500000000E+03  0.80419002446E+02 0. -1.
        -24    1    1    2    0    0 -0.41184917364E+02 -0.80420525043E+02 -0.31529760213E+02  0.12500000000E+03  0.80419002446E+02 0.  1.
</event>
<event>
 4    1  0.1586888E-001  0.1250000E+03  0.7546771E-02  0.1126479E+00
        -11   -1    0    0    0    0  0.00000000000E+00  0.00000000000E+00  0.12500000000E+03  0.12500000000E+03  0.00000000000E+00 0.  1.
         11   -1    0    0    0    0 -0.00000000000E+00 -0.00000000000E+00 -0.12500000000E+03  0.12500000000E+03  0.00000000000E+00 0. -1.
         24    1    1    2    0    0  0.19010464510E+02 -0.13736155870E+01  0.93778992663E+02  0.12500000000E+03  0.80419002446E+02 0.  1.
        -24    1    1    2    0    0 -0.19010464510E+02  0.13736155870E+01 -0.93778992663E+02  0.12500000000E+03  0.80419002446E+02 0. -1.
</event>
<event>
 4    1  0.1586888E-001  0.1250000E+03  0.7546771E-02  0.1126479E+00
        -11   -1    0    0    0    0  0.00000000000E+00  0.00000000000E+00  0.12500000000E+03  0.12500000000E+03  0.00000000000E+00 0.  1.
         11   -1    0    0    0    0 -0.00000000000E+00 -0.00000000000E+00 -0.12500000000E+03  0.12500000000E+03  0.00000000000E+00 0. -1.
         24    1    1    2    0    0  0.17597496552E+02  0.30906625424E+02  0.88841953297E+02  0.12500000000E+03  0.80419002446E+02 0.  1.
        -24    1    1    2    0    0 -0.17597496552E+02 -0.30906625424E+02 -0.88841953297E+02  0.12500000000E+03  0.80419002446E+02 0. -1.
</event>
<event>
 4    1  0.1586888E-001  0.1250000E+03  0.7546771E-02  0.1126479E+00
        -11   -1    0    0    0    0  0.00000000000E+00  0.00000000000E+00  0.12500000000E+03  0.12500000000E+03  0.00000000000E+00 0.  1.
         11   -1    0    0    0    0 -0.00000000000E+00 -0.00000000000E+00 -0.12500000000E+03  0.12500000000E+03  0.00000000000E+00 0. -1.
         24    1    1    2    0    0  0.34611396150E+02 -0.38282293263E+02  0.80587228050E+02  0.12500000000E+03  0.80419002446E+02 0.  1.
        -24    1    1    2    0    0 -0.34611396150E+02  0.38282293263E+02 -0.80587228050E+02  0.12500000000E+03  0.80419002446E+02 0. -1.
</event>
<event>
 4    1  0.1586888E-001  0.1250000E+03  0.7546771E-02  0.1126479E+00
        -11   -1    0    0    0    0  0.00000000000E+00  0.00000000000E+00  0.12500000000E+03  0.12500000000E+03  0.00000000000E+00 0.  1.
         11   -1    0    0    0    0 -0.00000000000E+00 -0.00000000000E+00 -0.12500000000E+03  0.12500000000E+03  0.00000000000E+00 0. -1.
         24    1    1    2    0    0 -0.13465723427E+02 -0.67107167880E+02  0.66881136035E+02  0.12500000000E+03  0.80419002446E+02 0.  1.
        -24    1    1    2    0    0  0.13465723427E+02  0.67107167880E+02 -0.66881136035E+02  0.12500000000E+03  0.80419002446E+02 0. -1.
</event>
<event>
 4    1  0.1586888E-001  0.1250000E+03  0.7546771E-02  0.1126479E+00
        -11   -1    0    0    0    0  0.00000000000E+00  0.00000000000E+00  0.12500000000E+03  0.12500000000E+03  0.00000000000E+00 0.  1.
         11   -1    0    0    0    0 -0.00000000000E+00 -0.00000000000E+00 -0.12500000000E+03  0.12500000000E+03  0.00000000000E+00 0. -1.
         24    1    1    2    0    0  0.26650027142E+02 -0.29626257685E+02  0.87004855925E+02  0.12500000000E+03  0.80419002446E+02 0.  1.
        -24    1    1    2    0    0 -0.26650027142E+02  0.29626257685E+02 -0.87004855925E+02  0.12500000000E+03  0.80419002446E+02 0. -1.
</event>
<event>
 4    1  0.1586888E-001  0.1250000E+03  0.7546771E-02  0.1126479E+00
        -11   -1    0    0    0    0  0.00000000000E+00  0.00000000000E+00  0.12500000000E+03  0.12500000000E+03  0.00000000000E+00 0.  1.
         11   -1    0    0    0    0 -0.00000000000E+00 -0.00000000000E+00 -0.12500000000E+03  0.12500000000E+03  0.00000000000E+00 0. -1.
         24    1    1    2    0    0  0.40923221709E+02 -0.62292922295E+02  0.60022210910E+02  0.12500000000E+03  0.80419002446E+02 0.  1.
        -24    1    1    2    0    0 -0.40923221709E+02  0.62292922295E+02 -0.60022210910E+02  0.12500000000E+03  0.80419002446E+02 0. -1.
</event>
<event>
 4    1  0.1586888E-001  0.1250000E+03  0.7546771E-02  0.1126479E+00
        -11   -1    0    0    0    0  0.00000000000E+00  0.00000000000E+00  0.12500000000E+03  0.12500000000E+03  0.00000000000E+00 0.  1.
         11   -1    0    0    0    0 -0.00000000000E+00 -0.00000000000E+00 -0.12500000000E+03  0.12500000000E+03  0.00000000000E+00 0. -1.
         24    1    1    2    0    0  0.47372625812E+02  0.14930597571E+02  0.81796672460E+02  0.12500000000E+03  0.80419002446E+02 0.  1.
        -24    1    1    2    0    0 -0.47372625812E+02 -0.14930597571E+02 -0.81796672460E+02  0.12500000000E+03  0.80419002446E+02 0. -1.
</event>
<event>
 4    1  0.1586888E-001  0.1250000E+03  0.7546771E-02  0.1126479E+00
        -11   -1    0    0    0    0  0.00000000000E+00  0.00000000000E+00  0.12500000000E+03  0.12500000000E+03  0.00000000000E+00 0.  1.
         11   -1    0    0    0    0 -0.00000000000E+00 -0.00000000000E+00 -0.12500000000E+03  0.12500000000E+03  0.00000000000E+00 0. -1.
         24    1    1    2    0    0  0.11696811197E+02  0.32468882050E+02  0.89256598366E+02  0.12500000000E+03  0.80419002446E+02 0.  1.
        -24    1    1    2    0    0 -0.11696811197E+02 -0.32468882050E+02 -0.89256598366E+02  0.12500000000E+03  0.80419002446E+02 0. -1.
</event>
<event>
 4    1  0.1586888E-001  0.1250000E+03  0.7546771E-02  0.1126479E+00
        -11   -1    0    0    0    0  0.00000000000E+00  0.00000000000E+00  0.12500000000E+03  0.12500000000E+03  0.00000000000E+00 0.  1.
         11   -1    0    0    0    0 -0.00000000000E+00 -0.00000000000E+00 -0.12500000000E+03  0.12500000000E+03  0.00000000000E+00 0. -1.
         24    1    1    2    0    0  0.91154680852E+01 -0.50439202605E+02  0.80811998662E+02  0.12500000000E+03  0.80419002446E+02 0.  1.
        -24    1    1    2    0    0 -0.91154680852E+01  0.50439202605E+02 -0.80811998662E+02  0.12500000000E+03  0.80419002446E+02 0. -1.
</event>
<event>
 4    1  0.1586888E-001  0.1250000E+03  0.7546771E-02  0.1126479E+00
        -11   -1    0    0    0    0  0.00000000000E+00  0.00000000000E+00  0.12500000000E+03  0.12500000000E+03  0.00000000000E+00 0.  1.
         11   -1    0    0    0    0 -0.00000000000E+00 -0.00000000000E+00 -0.12500000000E+03  0.12500000000E+03  0.00000000000E+00 0. -1.
         24    1    1    2    0    0  0.59874617343E+02  0.11376429790E+02  0.73779340529E+02  0.12500000000E+03  0.80419002446E+02 0.  1.
        -24    1    1    2    0    0 -0.59874617343E+02 -0.11376429790E+02 -0.73779340529E+02  0.12500000000E+03  0.80419002446E+02 0. -1.
</event>
<event>
 4    1  0.1586888E-001  0.1250000E+03  0.7546771E-02  0.1126479E+00
        -11   -1    0    0    0    0  0.00000000000E+00  0.00000000000E+00  0.12500000000E+03  0.12500000000E+03  0.00000000000E+00 0.  1.
         11   -1    0    0    0    0 -0.00000000000E+00 -0.00000000000E+00 -0.12500000000E+03  0.12500000000E+03  0.00000000000E+00 0. -1.
         24    1    1    2    0    0  0.60725666464E+01 -0.81281623525E+02  0.50141855342E+02  0.12500000000E+03  0.80419002446E+02 0.  1.
        -24    1    1    2    0    0 -0.60725666464E+01  0.81281623525E+02 -0.50141855342E+02  0.12500000000E+03  0.80419002446E+02 0. -1.
</event>
<event>
 4    1  0.1586888E-001  0.1250000E+03  0.7546771E-02  0.1126479E+00
        -11   -1    0    0    0    0  0.00000000000E+00  0.00000000000E+00  0.12500000000E+03  0.12500000000E+03  0.00000000000E+00 0.  1.
         11   -1    0    0    0    0 -0.00000000000E+00 -0.00000000000E+00 -0.12500000000E+03  0.12500000000E+03  0.00000000000E+00 0. -1.
         24    1    1    2    0    0  0.58318564798E+02 -0.73554290019E+02 -0.18614388666E+02  0.12500000000E+03  0.80419002446E+02 0. -1.
        -24    1    1    2    0    0 -0.58318564798E+02  0.73554290019E+02  0.18614388666E+02  0.12500000000E+03  0.80419002446E+02 0.  1.
</event>
<event>
 4    1  0.1586888E-001  0.1250000E+03  0.7546771E-02  0.1126479E+00
        -11   -1    0    0    0    0  0.00000000000E+00  0.00000000000E+00  0.12500000000E+03  0.12500000000E+03  0.00000000000E+00 0.  1.
         11   -1    0    0    0    0 -0.00000000000E+00 -0.00000000000E+00 -0.12500000000E+03  0.12500000000E+03  0.00000000000E+00 0. -1.
         24    1    1    2    0    0 -0.50481557353E+02 -0.26791782757E+02  0.76756737747E+02  0.12500000000E+03  0.80419002446E+02 0.  1.
        -24    1    1    2    0    0  0.50481557353E+02  0.26791782757E+02 -0.76756737747E+02  0.12500000000E+03  0.80419002446E+02 0. -1.
</event>
<event>
 4    1  0.1586888E-001  0.1250000E+03  0.7546771E-02  0.1126479E+00
        -11   -1    0    0    0    0  0.00000000000E+00  0.00000000000E+00  0.12500000000E+03  0.12500000000E+03  0.00000000000E+00 0.  1.
         11   -1    0    0    0    0 -0.00000000000E+00 -0.00000000000E+00 -0.12500000000E+03  0.12500000000E+03  0.00000000000E+00 0. -1.
         24    1    1    2    0    0 -0.46898445535E+02  0.11805071546E+02  0.82576995209E+02  0.12500000000E+03  0.80419002446E+02 0.  1.
        -24    1    1    2    0    0  0.46898445535E+02 -0.11805071546E+02 -0.82576995209E+02  0.12500000000E+03  0.80419002446E+02 0. -1.
</event>
<event>
 4    1  0.1586888E-001  0.1250000E+03  0.7546771E-02  0.1126479E+00
        -11   -1    0    0    0    0  0.00000000000E+00  0.00000000000E+00  0.12500000000E+03  0.12500000000E+03  0.00000000000E+00 0.  1.
         11   -1    0    0    0    0 -0.00000000000E+00 -0.00000000000E+00 -0.12500000000E+03  0.12500000000E+03  0.00000000000E+00 0. -1.
         24    1    1    2    0    0 -0.21402049743E+02 -0.94882530429E+01  0.92788519584E+02  0.12500000000E+03  0.80419002446E+02 0.  1.
        -24    1    1    2    0    0  0.21402049743E+02  0.94882530429E+01 -0.92788519584E+02  0.12500000000E+03  0.80419002446E+02 0. -1.
</event>
<event>
 4    1  0.1586888E-001  0.1250000E+03  0.7546771E-02  0.1126479E+00
        -11   -1    0    0    0    0  0.00000000000E+00  0.00000000000E+00  0.12500000000E+03  0.12500000000E+03  0.00000000000E+00 0.  1.
         11   -1    0    0    0    0 -0.00000000000E+00 -0.00000000000E+00 -0.12500000000E+03  0.12500000000E+03  0.00000000000E+00 0. -1.
         24    1    1    2    0    0 -0.95438498498E+02 -0.12018692038E+01 -0.69161087635E+01  0.12500000000E+03  0.80419002446E+02 0. -1.
        -24    1    1    2    0    0  0.95438498498E+02  0.12018692038E+01  0.69161087635E+01  0.12500000000E+03  0.80419002446E+02 0.  1.
</event>
<event>
 4    1  0.1586888E-001  0.1250000E+03  0.7546771E-02  0.1126479E+00
        -11   -1    0    0    0    0  0.00000000000E+00  0.00000000000E+00  0.12500000000E+03  0.12500000000E+03  0.00000000000E+00 0.  1.
         11   -1    0    0    0    0 -0.00000000000E+00 -0.00000000000E+00 -0.12500000000E+03  0.12500000000E+03  0.00000000000E+00 0. -1.
         24    1    1    2    0    0  0.46001934106E+02  0.71488176617E+02  0.43943676543E+02  0.12500000000E+03  0.80419002446E+02 0.  1.
        -24    1    1    2    0    0 -0.46001934106E+02 -0.71488176617E+02 -0.43943676543E+02  0.12500000000E+03  0.80419002446E+02 0. -1.
</event>
<event>
 4    1  0.1586888E-001  0.1250000E+03  0.7546771E-02  0.1126479E+00
        -11   -1    0    0    0    0  0.00000000000E+00  0.00000000000E+00  0.12500000000E+03  0.12500000000E+03  0.00000000000E+00 0.  1.
         11   -1    0    0    0    0 -0.00000000000E+00 -0.00000000000E+00 -0.12500000000E+03  0.12500000000E+03  0.00000000000E+00 0. -1.
         24    1    1    2    0    0  0.19758406348E+02  0.25170193964E+02  0.90187863707E+02  0.12500000000E+03  0.80419002446E+02 0.  1.
        -24    1    1    2    0    0 -0.19758406348E+02 -0.25170193964E+02 -0.90187863707E+02  0.12500000000E+03  0.80419002446E+02 0. -1.
</event>
<event>
 4    1  0.1586888E-001  0.1250000E+03  0.7546771E-02  0.1126479E+00
        -11   -1    0    0    0    0  0.00000000000E+00  0.00000000000E+00  0.12500000000E+03  0.12500000000E+03  0.00000000000E+00 0.  1.
         11   -1    0    0    0    0 -0.00000000000E+00 -0.00000000000E+00 -0.12500000000E+03  0.12500000000E+03  0.00000000000E+00 0. -1.
         24    1    1    2    0    0 -0.83509366263E+02 -0.81051551712E+01  0.46024735215E+02  0.12500000000E+03  0.80419002446E+02 0.  1.
        -24    1    1    2    0    0  0.83509366263E+02  0.81051551712E+01 -0.46024735215E+02  0.12500000000E+03  0.80419002446E+02 0. -1.
</event>
<event>
 4    1  0.1586888E-001  0.1250000E+03  0.7546771E-02  0.1126479E+00
        -11   -1    0    0    0    0  0.00000000000E+00  0.00000000000E+00  0.12500000000E+03  0.12500000000E+03  0.00000000000E+00 0.  1.
         11   -1    0    0    0    0 -0.00000000000E+00 -0.00000000000E+00 -0.12500000000E+03  0.12500000000E+03  0.00000000000E+00 0. -1.
         24    1    1    2    0    0  0.46925940074E+01  0.14272216098E+02  0.94509615674E+02  0.12500000000E+03  0.80419002446E+02 0.  1.
        -24    1    1    2    0    0 -0.46925940074E+01 -0.14272216098E+02 -0.94509615674E+02  0.12500000000E+03  0.80419002446E+02 0. -1.
</event>
<event>
 4    1  0.1586888E-001  0.1250000E+03  0.7546771E-02  0.1126479E+00
        -11   -1    0    0    0    0  0.00000000000E+00  0.00000000000E+00  0.12500000000E+03  0.12500000000E+03  0.00000000000E+00 0.  1.
         11   -1    0    0    0    0 -0.00000000000E+00 -0.00000000000E+00 -0.12500000000E+03  0.12500000000E+03  0.00000000000E+00 0. -1.
         24    1    1    2    0    0 -0.65972818766E+02 -0.67652735723E+02  0.15115507895E+02  0.12500000000E+03  0.80419002446E+02 0.  1.
        -24    1    1    2    0    0  0.65972818766E+02  0.67652735723E+02 -0.15115507895E+02  0.12500000000E+03  0.80419002446E+02 0. -1.
</event>
<event>
 4    1  0.1586888E-001  0.1250000E+03  0.7546771E-02  0.1126479E+00
        -11   -1    0    0    0    0  0.00000000000E+00  0.00000000000E+00  0.12500000000E+03  0.12500000000E+03  0.00000000000E+00 0.  1.
         11   -1    0    0    0    0 -0.00000000000E+00 -0.00000000000E+00 -0.12500000000E+03  0.12500000000E+03  0.00000000000E+00 0. -1.
         24    1    1    2    0    0  0.14000013447E+01  0.37880397847E+00  0.95685320449E+02  0.12500000000E+03  0.80419002446E+02 0.  0.
        -24    1    1    2    0    0 -0.14000013447E+01 -0.37880397847E+00 -0.95685320449E+02  0.12500000000E+03  0.80419002446E+02 0. -1.
</event>
<event>
 4    1  0.1586888E-001  0.1250000E+03  0.7546771E-02  0.1126479E+00
        -11   -1    0    0    0    0  0.00000000000E+00  0.00000000000E+00  0.12500000000E+03  0.12500000000E+03  0.00000000000E+00 0.  1.
         11   -1    0    0    0    0 -0.00000000000E+00 -0.00000000000E+00 -0.12500000000E+03  0.12500000000E+03  0.00000000000E+00 0. -1.
         24    1    1    2    0    0  0.47251354393E+02 -0.65830865194E+02  0.50905704410E+02  0.12500000000E+03  0.80419002446E+02 0.  1.
        -24    1    1    2    0    0 -0.47251354393E+02  0.65830865194E+02 -0.50905704410E+02  0.12500000000E+03  0.80419002446E+02 0. -1.
</event>
<event>
 4    1  0.1586888E-001  0.1250000E+03  0.7546771E-02  0.1126479E+00
        -11   -1    0    0    0    0  0.00000000000E+00  0.00000000000E+00  0.12500000000E+03  0.12500000000E+03  0.00000000000E+00 0.  1.
         11   -1    0    0    0    0 -0.00000000000E+00 -0.00000000000E+00 -0.12500000000E+03  0.12500000000E+03  0.00000000000E+00 0. -1.
         24    1    1    2    0    0 -0.28560958081E+02  0.38425464155E+02  0.82858550697E+02  0.12500000000E+03  0.80419002446E+02 0.  1.
        -24    1    1    2    0    0  0.28560958081E+02 -0.38425464155E+02 -0.82858550697E+02  0.12500000000E+03  0.80419002446E+02 0. -1.
</event>
<event>
 4    1  0.1586888E-001  0.1250000E+03  0.7546771E-02  0.1126479E+00
        -11   -1    0    0    0    0  0.00000000000E+00  0.00000000000E+00  0.12500000000E+03  0.12500000000E+03  0.00000000000E+00 0.  1.
         11   -1    0    0    0    0 -0.00000000000E+00 -0.00000000000E+00 -0.12500000000E+03  0.12500000000E+03  0.00000000000E+00 0. -1.
         24    1    1    2    0    0 -0.51996174857E+02  0.79350044810E+02 -0.12559945643E+02  0.12500000000E+03  0.80419002446E+02 0. -1.
        -24    1    1    2    0    0  0.51996174857E+02 -0.79350044810E+02  0.12559945643E+02  0.12500000000E+03  0.80419002446E+02 0.  1.
</event>
<event>
 4    1  0.1586888E-001  0.1250000E+03  0.7546771E-02  0.1126479E+00
        -11   -1    0    0    0    0  0.00000000000E+00  0.00000000000E+00  0.12500000000E+03  0.12500000000E+03  0.00000000000E+00 0.  1.
         11   -1    0    0    0    0 -0.00000000000E+00 -0.00000000000E+00 -0.12500000000E+03  0.12500000000E+03  0.00000000000E+00 0. -1.
         24    1    1    2    0    0  0.11041004312E+02  0.78294623333E+02  0.53905771737E+02  0.12500000000E+03  0.80419002446E+02 0.  1.
        -24    1    1    2    0    0 -0.11041004312E+02 -0.78294623333E+02 -0.53905771737E+02  0.12500000000E+03  0.80419002446E+02 0. -1.
</event>
<event>
 4    1  0.1586888E-001  0.1250000E+03  0.7546771E-02  0.1126479E+00
        -11   -1    0    0    0    0  0.00000000000E+00  0.00000000000E+00  0.12500000000E+03  0.12500000000E+03  0.00000000000E+00 0.  1.
         11   -1    0    0    0    0 -0.00000000000E+00 -0.00000000000E+00 -0.12500000000E+03  0.12500000000E+03  0.00000000000E+00 0. -1.
         24    1    1    2    0    0  0.28900114905E+02 -0.27364613136E+02  0.87027267865E+02  0.12500000000E+03  0.80419002446E+02 0.  1.
        -24    1    1    2    0    0 -0.28900114905E+02  0.27364613136E+02 -0.87027267865E+02  0.12500000000E+03  0.80419002446E+02 0. -1.
</event>
