<event>
 4    1  0.1599584E-001  0.1250000E+03  0.7546771E-02  0.1126479E+00
        -11   -1    0    0    0    0  0.00000000000E+00  0.00000000000E+00  0.12500000000E+03  0.12500000000E+03  0.00000000000E+00 0.  1.
         11   -1    0    0    0    0 -0.00000000000E+00 -0.00000000000E+00 -0.12500000000E+03  0.12500000000E+03  0.00000000000E+00 0. -1.
         24    1    1    2    0    0  0.12312764032E+02 -0.48388989407E+02  0.81637525634E+02  0.12500000000E+03  0.80419002446E+02 0.  1.
        -24    1    1    2    0    0 -0.12312764032E+02  0.48388989407E+02 -0.81637525634E+02  0.12500000000E+03  0.80419002446E+02 0. -1.
</event>
<event>
 4    1  0.1599584E-001  0.1250000E+03  0.7546771E-02  0.1126479E+00
        -11   -1    0    0    0    0  0.00000000000E+00  0.00000000000E+00  0.12500000000E+03  0.12500000000E+03  0.00000000000E+00 0.  1.
         11   -1    0    0    0    0 -0.00000000000E+00 -0.00000000000E+00 -0.12500000000E+03  0.12500000000E+03  0.00000000000E+00 0. -1.
         24    1    1    2    0    0  0.12199906798E+02  0.11883814081E+02  0.94168579062E+02  0.12500000000E+03  0.80419002446E+02 0.  1.
        -24    1    1    2    0    0 -0.12199906798E+02 -0.11883814081E+02 -0.94168579062E+02  0.12500000000E+03  0.80419002446E+02 0. -1.
</event>
<event>
 4    1  0.1599584E-001  0.1250000E+03  0.7546771E-02  0.1126479E+00
        -11   -1    0    0    0    0  0.00000000000E+00  0.00000000000E+00  0.12500000000E+03  0.12500000000E+03  0.00000000000E+00 0.  1.
         11   -1    0    0    0    0 -0.00000000000E+00 -0.00000000000E+00 -0.12500000000E+03  0.12500000000E+03  0.00000000000E+00 0. -1.
         24    1    1    2    0    0  0.31321867742E+02 -0.33037026379E+01  0.90364872576E+02  0.12500000000E+03  0.80419002446E+02 0.  1.
        -24    1    1    2    0    0 -0.31321867742E+02  0.33037026379E+01 -0.90364872576E+02  0.12500000000E+03  0.80419002446E+02 0. -1.
</event>
<event>
 4    1  0.1599584E-001  0.1250000E+03  0.7546771E-02  0.1126479E+00
        -11   -1    0    0    0    0  0.00000000000E+00  0.00000000000E+00  0.12500000000E+03  0.12500000000E+03  0.00000000000E+00 0.  1.
         11   -1    0    0    0    0 -0.00000000000E+00 -0.00000000000E+00 -0.12500000000E+03  0.12500000000E+03  0.00000000000E+00 0. -1.
         24    1    1    2    0    0  0.56372413821E+02  0.68956466865E+02  0.34999152605E+02  0.12500000000E+03  0.80419002446E+02 0. -1.
        -24    1    1    2    0    0 -0.56372413821E+02 -0.68956466865E+02 -0.34999152605E+02  0.12500000000E+03  0.80419002446E+02 0.  1.
</event>
<event>
 4    1  0.1599584E-001  0.1250000E+03  0.7546771E-02  0.1126479E+00
        -11   -1    0    0    0    0  0.00000000000E+00  0.00000000000E+00  0.12500000000E+03  0.12500000000E+03  0.00000000000E+00 0.  1.
         11   -1    0    0    0    0 -0.00000000000E+00 -0.00000000000E+00 -0.12500000000E+03  0.12500000000E+03  0.00000000000E+00 0. -1.
         24    1    1    2    0    0  0.29531115429E+02 -0.31370262167E+02  0.85449423162E+02  0.12500000000E+03  0.80419002446E+02 0.  1.
        -24    1    1    2    0    0 -0.29531115429E+02  0.31370262167E+02 -0.85449423162E+02  0.12500000000E+03  0.80419002446E+02 0. -1.
</event>
<event>
 4    1  0.1599584E-001  0.1250000E+03  0.7546771E-02  0.1126479E+00
        -11   -1    0    0    0    0  0.00000000000E+00  0.00000000000E+00  0.12500000000E+03  0.12500000000E+03  0.00000000000E+00 0.  1.
         11   -1    0    0    0    0 -0.00000000000E+00 -0.00000000000E+00 -0.12500000000E+03  0.12500000000E+03  0.00000000000E+00 0. -1.
         24    1    1    2    0    0 -0.12071917636E+02 -0.27321520683E+02  0.90915275712E+02  0.12500000000E+03  0.80419002446E+02 0.  1.
        -24    1    1    2    0    0  0.12071917636E+02  0.27321520683E+02 -0.90915275712E+02  0.12500000000E+03  0.80419002446E+02 0. -1.
</event>
<event>
 4    1  0.1599584E-001  0.1250000E+03  0.7546771E-02  0.1126479E+00
        -11   -1    0    0    0    0  0.00000000000E+00  0.00000000000E+00  0.12500000000E+03  0.12500000000E+03  0.00000000000E+00 0.  1.
         11   -1    0    0    0    0 -0.00000000000E+00 -0.00000000000E+00 -0.12500000000E+03  0.12500000000E+03  0.00000000000E+00 0. -1.
         24    1    1    2    0    0 -0.67701813592E+02  0.55636183613E+02 -0.38455995046E+02  0.12500000000E+03  0.80419002446E+02 0.  0.
        -24    1    1    2    0    0  0.67701813592E+02 -0.55636183613E+02  0.38455995046E+02  0.12500000000E+03  0.80419002446E+02 0.  0.
</event>
<event>
 4    1  0.1599584E-001  0.1250000E+03  0.7546771E-02  0.1126479E+00
        -11   -1    0    0    0    0  0.00000000000E+00  0.00000000000E+00  0.12500000000E+03  0.12500000000E+03  0.00000000000E+00 0.  1.
         11   -1    0    0    0    0 -0.00000000000E+00 -0.00000000000E+00 -0.12500000000E+03  0.12500000000E+03  0.00000000000E+00 0. -1.
         24    1    1    2    0    0  0.58932270824E+02 -0.11545304488E+02  0.74508237433E+02  0.12500000000E+03  0.80419002446E+02 0.  1.
        -24    1    1    2    0    0 -0.58932270824E+02  0.11545304488E+02 -0.74508237433E+02  0.12500000000E+03  0.80419002446E+02 0. -1.
</event>
<event>
 4    1  0.1599584E-001  0.1250000E+03  0.7546771E-02  0.1126479E+00
        -11   -1    0    0    0    0  0.00000000000E+00  0.00000000000E+00  0.12500000000E+03  0.12500000000E+03  0.00000000000E+00 0.  1.
         11   -1    0    0    0    0 -0.00000000000E+00 -0.00000000000E+00 -0.12500000000E+03  0.12500000000E+03  0.00000000000E+00 0. -1.
         24    1    1    2    0    0  0.35491798350E+02 -0.57858023934E+02  0.67457878428E+02  0.12500000000E+03  0.80419002446E+02 0.  1.
        -24    1    1    2    0    0 -0.35491798350E+02  0.57858023934E+02 -0.67457878428E+02  0.12500000000E+03  0.80419002446E+02 0. -1.
</event>
<event>
 4    1  0.1599584E-001  0.1250000E+03  0.7546771E-02  0.1126479E+00
        -11   -1    0    0    0    0  0.00000000000E+00  0.00000000000E+00  0.12500000000E+03  0.12500000000E+03  0.00000000000E+00 0.  1.
         11   -1    0    0    0    0 -0.00000000000E+00 -0.00000000000E+00 -0.12500000000E+03  0.12500000000E+03  0.00000000000E+00 0. -1.
         24    1    1    2    0    0 -0.92021534439E+01 -0.69539326497E+02  0.65095210945E+02  0.12500000000E+03  0.80419002446E+02 0. -1.
        -24    1    1    2    0    0  0.92021534439E+01  0.69539326497E+02 -0.65095210945E+02  0.12500000000E+03  0.80419002446E+02 0.  0.
</event>
<event>
 4    1  0.1599584E-001  0.1250000E+03  0.7546771E-02  0.1126479E+00
        -11   -1    0    0    0    0  0.00000000000E+00  0.00000000000E+00  0.12500000000E+03  0.12500000000E+03  0.00000000000E+00 0.  1.
         11   -1    0    0    0    0 -0.00000000000E+00 -0.00000000000E+00 -0.12500000000E+03  0.12500000000E+03  0.00000000000E+00 0. -1.
         24    1    1    2    0    0  0.62442765753E+02 -0.29238451923E+02  0.66361117983E+02  0.12500000000E+03  0.80419002446E+02 0.  1.
        -24    1    1    2    0    0 -0.62442765753E+02  0.29238451923E+02 -0.66361117983E+02  0.12500000000E+03  0.80419002446E+02 0. -1.
</event>
<event>
 4    1  0.1599584E-001  0.1250000E+03  0.7546771E-02  0.1126479E+00
        -11   -1    0    0    0    0  0.00000000000E+00  0.00000000000E+00  0.12500000000E+03  0.12500000000E+03  0.00000000000E+00 0.  1.
         11   -1    0    0    0    0 -0.00000000000E+00 -0.00000000000E+00 -0.12500000000E+03  0.12500000000E+03  0.00000000000E+00 0. -1.
         24    1    1    2    0    0  0.68553532904E+02  0.53147984799E+02 -0.40416443236E+02  0.12500000000E+03  0.80419002446E+02 0.  0.
        -24    1    1    2    0    0 -0.68553532904E+02 -0.53147984799E+02  0.40416443236E+02  0.12500000000E+03  0.80419002446E+02 0.  0.
</event>
<event>
 4    1  0.1599584E-001  0.1250000E+03  0.7546771E-02  0.1126479E+00
        -11   -1    0    0    0    0  0.00000000000E+00  0.00000000000E+00  0.12500000000E+03  0.12500000000E+03  0.00000000000E+00 0.  1.
         11   -1    0    0    0    0 -0.00000000000E+00 -0.00000000000E+00 -0.12500000000E+03  0.12500000000E+03  0.00000000000E+00 0. -1.
         24    1    1    2    0    0 -0.23888147388E+02  0.37228532649E+02  0.84859747919E+02  0.12500000000E+03  0.80419002446E+02 0.  1.
        -24    1    1    2    0    0  0.23888147388E+02 -0.37228532649E+02 -0.84859747919E+02  0.12500000000E+03  0.80419002446E+02 0. -1.
</event>
<event>
 4    1  0.1599584E-001  0.1250000E+03  0.7546771E-02  0.1126479E+00
        -11   -1    0    0    0    0  0.00000000000E+00  0.00000000000E+00  0.12500000000E+03  0.12500000000E+03  0.00000000000E+00 0.  1.
         11   -1    0    0    0    0 -0.00000000000E+00 -0.00000000000E+00 -0.12500000000E+03  0.12500000000E+03  0.00000000000E+00 0. -1.
         24    1    1    2    0    0 -0.13618792010E+01 -0.34411021627E+01  0.95624725603E+02  0.12500000000E+03  0.80419002446E+02 0.  1.
        -24    1    1    2    0    0  0.13618792010E+01  0.34411021627E+01 -0.95624725603E+02  0.12500000000E+03  0.80419002446E+02 0.  0.
</event>
<event>
 4    1  0.1599584E-001  0.1250000E+03  0.7546771E-02  0.1126479E+00
        -11   -1    0    0    0    0  0.00000000000E+00  0.00000000000E+00  0.12500000000E+03  0.12500000000E+03  0.00000000000E+00 0.  1.
         11   -1    0    0    0    0 -0.00000000000E+00 -0.00000000000E+00 -0.12500000000E+03  0.12500000000E+03  0.00000000000E+00 0. -1.
         24    1    1    2    0    0 -0.11994432842E+02 -0.20368943906E+02  0.92730921221E+02  0.12500000000E+03  0.80419002446E+02 0.  1.
        -24    1    1    2    0    0  0.11994432842E+02  0.20368943906E+02 -0.92730921221E+02  0.12500000000E+03  0.80419002446E+02 0. -1.
</event>
<event>
 4    1  0.1599584E-001  0.1250000E+03  0.7546771E-02  0.1126479E+00
        -11   -1    0    0    0    0  0.00000000000E+00  0.00000000000E+00  0.12500000000E+03  0.12500000000E+03  0.00000000000E+00 0.  1.
         11   -1    0    0    0    0 -0.00000000000E+00 -0.00000000000E+00 -0.12500000000E+03  0.12500000000E+03  0.00000000000E+00 0. -1.
         24    1    1    2    0    0  0.68725307448E+01  0.17100974692E+02  0.93904787052E+02  0.12500000000E+03  0.80419002446E+02 0.  1.
        -24    1    1    2    0    0 -0.68725307448E+01 -0.17100974692E+02 -0.93904787052E+02  0.12500000000E+03  0.80419002446E+02 0.  0.
</event>
<event>
 4    1  0.1599584E-001  0.1250000E+03  0.7546771E-02  0.1126479E+00
        -11   -1    0    0    0    0  0.00000000000E+00  0.00000000000E+00  0.12500000000E+03  0.12500000000E+03  0.00000000000E+00 0.  1.
         11   -1    0    0    0    0 -0.00000000000E+00 -0.00000000000E+00 -0.12500000000E+03  0.12500000000E+03  0.00000000000E+00 0. -1.
         24    1    1    2    0    0 -0.16775994724E+01  0.28364320989E+02  0.91380714598E+02  0.12500000000E+03  0.80419002446E+02 0. -1.
        -24    1    1    2    0    0  0.16775994724E+01 -0.28364320989E+02 -0.91380714598E+02  0.12500000000E+03  0.80419002446E+02 0. -1.
</event>
<event>
 4    1  0.1599584E-001  0.1250000E+03  0.7546771E-02  0.1126479E+00
        -11   -1    0    0    0    0  0.00000000000E+00  0.00000000000E+00  0.12500000000E+03  0.12500000000E+03  0.00000000000E+00 0.  1.
         11   -1    0    0    0    0 -0.00000000000E+00 -0.00000000000E+00 -0.12500000000E+03  0.12500000000E+03  0.00000000000E+00 0. -1.
         24    1    1    2    0    0  0.58251660381E+02  0.39823855489E+02  0.64642003701E+02  0.12500000000E+03  0.80419002446E+02 0.  1.
        -24    1    1    2    0    0 -0.58251660381E+02 -0.39823855489E+02 -0.64642003701E+02  0.12500000000E+03  0.80419002446E+02 0. -1.
</event>
<event>
 4    1  0.1599584E-001  0.1250000E+03  0.7546771E-02  0.1126479E+00
        -11   -1    0    0    0    0  0.00000000000E+00  0.00000000000E+00  0.12500000000E+03  0.12500000000E+03  0.00000000000E+00 0.  1.
         11   -1    0    0    0    0 -0.00000000000E+00 -0.00000000000E+00 -0.12500000000E+03  0.12500000000E+03  0.00000000000E+00 0. -1.
         24    1    1    2    0    0  0.28877773773E+02  0.11432754206E+02  0.90516022663E+02  0.12500000000E+03  0.80419002446E+02 0.  1.
        -24    1    1    2    0    0 -0.28877773773E+02 -0.11432754206E+02 -0.90516022663E+02  0.12500000000E+03  0.80419002446E+02 0.  0.
</event>
<event>
 4    1  0.1599584E-001  0.1250000E+03  0.7546771E-02  0.1126479E+00
        -11   -1    0    0    0    0  0.00000000000E+00  0.00000000000E+00  0.12500000000E+03  0.12500000000E+03  0.00000000000E+00 0.  1.
         11   -1    0    0    0    0 -0.00000000000E+00 -0.00000000000E+00 -0.12500000000E+03  0.12500000000E+03  0.00000000000E+00 0. -1.
         24    1    1    2    0    0 -0.56907710437E+02  0.65870950380E+02  0.39753168861E+02  0.12500000000E+03  0.80419002446E+02 0.  1.
        -24    1    1    2    0    0  0.56907710437E+02 -0.65870950380E+02 -0.39753168861E+02  0.12500000000E+03  0.80419002446E+02 0. -1.
</event>
<event>
 4    1  0.1599584E-001  0.1250000E+03  0.7546771E-02  0.1126479E+00
        -11   -1    0    0    0    0  0.00000000000E+00  0.00000000000E+00  0.12500000000E+03  0.12500000000E+03  0.00000000000E+00 0.  1.
         11   -1    0    0    0    0 -0.00000000000E+00 -0.00000000000E+00 -0.12500000000E+03  0.12500000000E+03  0.00000000000E+00 0. -1.
         24    1    1    2    0    0 -0.58231780532E+02  0.27313394784E+02  0.70857760669E+02  0.12500000000E+03  0.80419002446E+02 0.  1.
        -24    1    1    2    0    0  0.58231780532E+02 -0.27313394784E+02 -0.70857760669E+02  0.12500000000E+03  0.80419002446E+02 0. -1.
</event>
<event>
 4    1  0.1599584E-001  0.1250000E+03  0.7546771E-02  0.1126479E+00
        -11   -1    0    0    0    0  0.00000000000E+00  0.00000000000E+00  0.12500000000E+03  0.12500000000E+03  0.00000000000E+00 0.  1.
         11   -1    0    0    0    0 -0.00000000000E+00 -0.00000000000E+00 -0.12500000000E+03  0.12500000000E+03  0.00000000000E+00 0. -1.
         24    1    1    2    0    0  0.60947706261E+01 -0.17703149394E+02  0.93846876976E+02  0.12500000000E+03  0.80419002446E+02 0.  1.
        -24    1    1    2    0    0 -0.60947706261E+01  0.17703149394E+02 -0.93846876976E+02  0.12500000000E+03  0.80419002446E+02 0. -1.
</event>
<event>
 4    1  0.1599584E-001  0.1250000E+03  0.7546771E-02  0.1126479E+00
        -11   -1    0    0    0    0  0.00000000000E+00  0.00000000000E+00  0.12500000000E+03  0.12500000000E+03  0.00000000000E+00 0.  1.
         11   -1    0    0    0    0 -0.00000000000E+00 -0.00000000000E+00 -0.12500000000E+03  0.12500000000E+03  0.00000000000E+00 0. -1.
         24    1    1    2    0    0 -0.69840622222E+02  0.64488106485E+02  0.11016154285E+02  0.12500000000E+03  0.80419002446E+02 0.  1.
        -24    1    1    2    0    0  0.69840622222E+02 -0.64488106485E+02 -0.11016154285E+02  0.12500000000E+03  0.80419002446E+02 0. -1.
</event>
<event>
 4    1  0.1599584E-001  0.1250000E+03  0.7546771E-02  0.1126479E+00
        -11   -1    0    0    0    0  0.00000000000E+00  0.00000000000E+00  0.12500000000E+03  0.12500000000E+03  0.00000000000E+00 0.  1.
         11   -1    0    0    0    0 -0.00000000000E+00 -0.00000000000E+00 -0.12500000000E+03  0.12500000000E+03  0.00000000000E+00 0. -1.
         24    1    1    2    0    0 -0.43499421943E+02 -0.30094264425E+02  0.79749103976E+02  0.12500000000E+03  0.80419002446E+02 0.  1.
        -24    1    1    2    0    0  0.43499421943E+02  0.30094264425E+02 -0.79749103976E+02  0.12500000000E+03  0.80419002446E+02 0. -1.
</event>
<event>
 4    1  0.1599584E-001  0.1250000E+03  0.7546771E-02  0.1126479E+00
        -11   -1    0    0    0    0  0.00000000000E+00  0.00000000000E+00  0.12500000000E+03  0.12500000000E+03  0.00000000000E+00 0.  1.
         11   -1    0    0    0    0 -0.00000000000E+00 -0.00000000000E+00 -0.12500000000E+03  0.12500000000E+03  0.00000000000E+00 0. -1.
         24    1    1    2    0    0  0.12452125946E+02 -0.75141036971E+02  0.57935767605E+02  0.12500000000E+03  0.80419002446E+02 0.  1.
        -24    1    1    2    0    0 -0.12452125946E+02  0.75141036971E+02 -0.57935767605E+02  0.12500000000E+03  0.80419002446E+02 0. -1.
</event>
<event>
 4    1  0.1599584E-001  0.1250000E+03  0.7546771E-02  0.1126479E+00
        -11   -1    0    0    0    0  0.00000000000E+00  0.00000000000E+00  0.12500000000E+03  0.12500000000E+03  0.00000000000E+00 0.  1.
         11   -1    0    0    0    0 -0.00000000000E+00 -0.00000000000E+00 -0.12500000000E+03  0.12500000000E+03  0.00000000000E+00 0. -1.
         24    1    1    2    0    0  0.18019551865E+02  0.17910818069E+02  0.92262031152E+02  0.12500000000E+03  0.80419002446E+02 0.  1.
        -24    1    1    2    0    0 -0.18019551865E+02 -0.17910818069E+02 -0.92262031152E+02  0.12500000000E+03  0.80419002446E+02 0. -1.
</event>
<event>
 4    1  0.1599584E-001  0.1250000E+03  0.7546771E-02  0.1126479E+00
        -11   -1    0    0    0    0  0.00000000000E+00  0.00000000000E+00  0.12500000000E+03  0.12500000000E+03  0.00000000000E+00 0.  1.
         11   -1    0    0    0    0 -0.00000000000E+00 -0.00000000000E+00 -0.12500000000E+03  0.12500000000E+03  0.00000000000E+00 0. -1.
         24    1    1    2    0    0  0.74115692874E+02  0.49849105513E+02  0.34346976505E+02  0.12500000000E+03  0.80419002446E+02 0.  1.
        -24    1    1    2    0    0 -0.74115692874E+02 -0.49849105513E+02 -0.34346976505E+02  0.12500000000E+03  0.80419002446E+02 0.  0.
</event>
<event>
 4    1  0.1599584E-001  0.1250000E+03  0.7546771E-02  0.1126479E+00
        -11   -1    0    0    0    0  0.00000000000E+00  0.00000000000E+00  0.12500000000E+03  0.12500000000E+03  0.00000000000E+00 0.  1.
         11   -1    0    0    0    0 -0.00000000000E+00 -0.00000000000E+00 -0.12500000000E+03  0.12500000000E+03  0.00000000000E+00 0. -1.
         24    1    1    2    0    0 -0.80080692478E+02 -0.17382975836E+01 -0.52362630372E+02  0.12500000000E+03  0.80419002446E+02 0.  0.
        -24    1    1    2    0    0  0.80080692478E+02  0.17382975836E+01  0.52362630372E+02  0.12500000000E+03  0.80419002446E+02 0.  0.
</event>
<event>
 4    1  0.1599584E-001  0.1250000E+03  0.7546771E-02  0.1126479E+00
        -11   -1    0    0    0    0  0.00000000000E+00  0.00000000000E+00  0.12500000000E+03  0.12500000000E+03  0.00000000000E+00 0.  1.
         11   -1    0    0    0    0 -0.00000000000E+00 -0.00000000000E+00 -0.12500000000E+03  0.12500000000E+03  0.00000000000E+00 0. -1.
         24    1    1    2    0    0  0.47337508528E+01 -0.96209754962E+01  0.95093703677E+02  0.12500000000E+03  0.80419002446E+02 0.  1.
        -24    1    1    2    0    0 -0.47337508528E+01  0.96209754962E+01 -0.95093703677E+02  0.12500000000E+03  0.80419002446E+02 0.  0.
</event>
<event>
 4    1  0.1599584E-001  0.1250000E+03  0.7546771E-02  0.1126479E+00
        -11   -1    0    0    0    0  0.00000000000E+00  0.00000000000E+00  0.12500000000E+03  0.12500000000E+03  0.00000000000E+00 0.  1.
         11   -1    0    0    0    0 -0.00000000000E+00 -0.00000000000E+00 -0.12500000000E+03  0.12500000000E+03  0.00000000000E+00 0. -1.
         24    1    1    2    0    0 -0.18075354030E+02 -0.26996959647E+02  0.90012386882E+02  0.12500000000E+03  0.80419002446E+02 0.  1.
        -24    1    1    2    0    0  0.18075354030E+02  0.26996959647E+02 -0.90012386882E+02  0.12500000000E+03  0.80419002446E+02 0. -1.
</event>
<event>
 4    1  0.1599584E-001  0.1250000E+03  0.7546771E-02  0.1126479E+00
        -11   -1    0    0    0    0  0.00000000000E+00  0.00000000000E+00  0.12500000000E+03  0.12500000000E+03  0.00000000000E+00 0.  1.
         11   -1    0    0    0    0 -0.00000000000E+00 -0.00000000000E+00 -0.12500000000E+03  0.12500000000E+03  0.00000000000E+00 0. -1.
         24    1    1    2    0    0  0.32111259367E+02  0.49702976160E+02  0.75208146024E+02  0.12500000000E+03  0.80419002446E+02 0.  1.
        -24    1    1    2    0    0 -0.32111259367E+02 -0.49702976160E+02 -0.75208146024E+02  0.12500000000E+03  0.80419002446E+02 0. -1.
</event>
<event>
 4    1  0.1599584E-001  0.1250000E+03  0.7546771E-02  0.1126479E+00
        -11   -1    0    0    0    0  0.00000000000E+00  0.00000000000E+00  0.12500000000E+03  0.12500000000E+03  0.00000000000E+00 0.  1.
         11   -1    0    0    0    0 -0.00000000000E+00 -0.00000000000E+00 -0.12500000000E+03  0.12500000000E+03  0.00000000000E+00 0. -1.
         24    1    1    2    0    0  0.11313227294E+02  0.45433452466E+01  0.94916557817E+02  0.12500000000E+03  0.80419002446E+02 0.  1.
        -24    1    1    2    0    0 -0.11313227294E+02 -0.45433452466E+01 -0.94916557817E+02  0.12500000000E+03  0.80419002446E+02 0.  0.
</event>
<event>
 4    1  0.1599584E-001  0.1250000E+03  0.7546771E-02  0.1126479E+00
        -11   -1    0    0    0    0  0.00000000000E+00  0.00000000000E+00  0.12500000000E+03  0.12500000000E+03  0.00000000000E+00 0.  1.
         11   -1    0    0    0    0 -0.00000000000E+00 -0.00000000000E+00 -0.12500000000E+03  0.12500000000E+03  0.00000000000E+00 0. -1.
         24    1    1    2    0    0 -0.27141282168E+02 -0.48485972866E+02  0.77911778847E+02  0.12500000000E+03  0.80419002446E+02 0.  1.
        -24    1    1    2    0    0  0.27141282168E+02  0.48485972866E+02 -0.77911778847E+02  0.12500000000E+03  0.80419002446E+02 0. -1.
</event>
<event>
 4    1  0.1599584E-001  0.1250000E+03  0.7546771E-02  0.1126479E+00
        -11   -1    0    0    0    0  0.00000000000E+00  0.00000000000E+00  0.12500000000E+03  0.12500000000E+03  0.00000000000E+00 0.  1.
         11   -1    0    0    0    0 -0.00000000000E+00 -0.00000000000E+00 -0.12500000000E+03  0.12500000000E+03  0.00000000000E+00 0. -1.
         24    1    1    2    0    0  0.62715919850E+01  0.95555458258E+01  0.95011276823E+02  0.12500000000E+03  0.80419002446E+02 0.  1.
        -24    1    1    2    0    0 -0.62715919850E+01 -0.95555458258E+01 -0.95011276823E+02  0.12500000000E+03  0.80419002446E+02 0. -1.
</event>
<event>
 4    1  0.1599584E-001  0.1250000E+03  0.7546771E-02  0.1126479E+00
        -11   -1    0    0    0    0  0.00000000000E+00  0.00000000000E+00  0.12500000000E+03  0.12500000000E+03  0.00000000000E+00 0.  1.
         11   -1    0    0    0    0 -0.00000000000E+00 -0.00000000000E+00 -0.12500000000E+03  0.12500000000E+03  0.00000000000E+00 0. -1.
         24    1    1    2    0    0  0.48886542884E+02 -0.39463350517E+02 -0.72184028264E+02  0.12500000000E+03  0.80419002446E+02 0. -1.
        -24    1    1    2    0    0 -0.48886542884E+02  0.39463350517E+02  0.72184028264E+02  0.12500000000E+03  0.80419002446E+02 0.  1.
</event>
<event>
 4    1  0.1599584E-001  0.1250000E+03  0.7546771E-02  0.1126479E+00
        -11   -1    0    0    0    0  0.00000000000E+00  0.00000000000E+00  0.12500000000E+03  0.12500000000E+03  0.00000000000E+00 0.  1.
         11   -1    0    0    0    0 -0.00000000000E+00 -0.00000000000E+00 -0.12500000000E+03  0.12500000000E+03  0.00000000000E+00 0. -1.
         24    1    1    2    0    0 -0.25402410879E+02 -0.71980756117E+02  0.57717175225E+02  0.12500000000E+03  0.80419002446E+02 0.  1.
        -24    1    1    2    0    0  0.25402410879E+02  0.71980756117E+02 -0.57717175225E+02  0.12500000000E+03  0.80419002446E+02 0. -1.
</event>
<event>
 4    1  0.1599584E-001  0.1250000E+03  0.7546771E-02  0.1126479E+00
        -11   -1    0    0    0    0  0.00000000000E+00  0.00000000000E+00  0.12500000000E+03  0.12500000000E+03  0.00000000000E+00 0.  1.
         11   -1    0    0    0    0 -0.00000000000E+00 -0.00000000000E+00 -0.12500000000E+03  0.12500000000E+03  0.00000000000E+00 0. -1.
         24    1    1    2    0    0  0.16334472587E+02  0.42136014389E+02  0.84353573382E+02  0.12500000000E+03  0.80419002446E+02 0.  1.
        -24    1    1    2    0    0 -0.16334472587E+02 -0.42136014389E+02 -0.84353573382E+02  0.12500000000E+03  0.80419002446E+02 0. -1.
</event>
<event>
 4    1  0.1599584E-001  0.1250000E+03  0.7546771E-02  0.1126479E+00
        -11   -1    0    0    0    0  0.00000000000E+00  0.00000000000E+00  0.12500000000E+03  0.12500000000E+03  0.00000000000E+00 0.  1.
         11   -1    0    0    0    0 -0.00000000000E+00 -0.00000000000E+00 -0.12500000000E+03  0.12500000000E+03  0.00000000000E+00 0. -1.
         24    1    1    2    0    0  0.90642351088E+02 -0.26833741106E+02 -0.14889545764E+02  0.12500000000E+03  0.80419002446E+02 0.  1.
        -24    1    1    2    0    0 -0.90642351088E+02  0.26833741106E+02  0.14889545764E+02  0.12500000000E+03  0.80419002446E+02 0. -1.
</event>
<event>
 4    1  0.1599584E-001  0.1250000E+03  0.7546771E-02  0.1126479E+00
        -11   -1    0    0    0    0  0.00000000000E+00  0.00000000000E+00  0.12500000000E+03  0.12500000000E+03  0.00000000000E+00 0.  1.
         11   -1    0    0    0    0 -0.00000000000E+00 -0.00000000000E+00 -0.12500000000E+03  0.12500000000E+03  0.00000000000E+00 0. -1.
         24    1    1    2    0    0  0.54545634683E+02 -0.42445868392E+02 -0.66188413179E+02  0.12500000000E+03  0.80419002446E+02 0. -1.
        -24    1    1    2    0    0 -0.54545634683E+02  0.42445868392E+02  0.66188413179E+02  0.12500000000E+03  0.80419002446E+02 0.  1.
</event>
<event>
 4    1  0.1599584E-001  0.1250000E+03  0.7546771E-02  0.1126479E+00
        -11   -1    0    0    0    0  0.00000000000E+00  0.00000000000E+00  0.12500000000E+03  0.12500000000E+03  0.00000000000E+00 0.  1.
         11   -1    0    0    0    0 -0.00000000000E+00 -0.00000000000E+00 -0.12500000000E+03  0.12500000000E+03  0.00000000000E+00 0. -1.
         24    1    1    2    0    0  0.65374699226E+02  0.24361327187E+02  0.65501591464E+02  0.12500000000E+03  0.80419002446E+02 0.  1.
        -24    1    1    2    0    0 -0.65374699226E+02 -0.24361327187E+02 -0.65501591464E+02  0.12500000000E+03  0.80419002446E+02 0. -1.
</event>
<event>
 4    1  0.1599584E-001  0.1250000E+03  0.7546771E-02  0.1126479E+00
        -11   -1    0    0    0    0  0.00000000000E+00  0.00000000000E+00  0.12500000000E+03  0.12500000000E+03  0.00000000000E+00 0.  1.
         11   -1    0    0    0    0 -0.00000000000E+00 -0.00000000000E+00 -0.12500000000E+03  0.12500000000E+03  0.00000000000E+00 0. -1.
         24    1    1    2    0    0 -0.14708230067E+01  0.31235232618E+02  0.90443247225E+02  0.12500000000E+03  0.80419002446E+02 0.  1.
        -24    1    1    2    0    0  0.14708230067E+01 -0.31235232618E+02 -0.90443247225E+02  0.12500000000E+03  0.80419002446E+02 0. -1.
</event>
<event>
 4    1  0.1599584E-001  0.1250000E+03  0.7546771E-02  0.1126479E+00
        -11   -1    0    0    0    0  0.00000000000E+00  0.00000000000E+00  0.12500000000E+03  0.12500000000E+03  0.00000000000E+00 0.  1.
         11   -1    0    0    0    0 -0.00000000000E+00 -0.00000000000E+00 -0.12500000000E+03  0.12500000000E+03  0.00000000000E+00 0. -1.
         24    1    1    2    0    0 -0.39008883784E+01 -0.14528320078E+01  0.95605734110E+02  0.12500000000E+03  0.80419002446E+02 0.  0.
        -24    1    1    2    0    0  0.39008883784E+01  0.14528320078E+01 -0.95605734110E+02  0.12500000000E+03  0.80419002446E+02 0. -1.
</event>
<event>
 4    1  0.1599584E-001  0.1250000E+03  0.7546771E-02  0.1126479E+00
        -11   -1    0    0    0    0  0.00000000000E+00  0.00000000000E+00  0.12500000000E+03  0.12500000000E+03  0.00000000000E+00 0.  1.
         11   -1    0    0    0    0 -0.00000000000E+00 -0.00000000000E+00 -0.12500000000E+03  0.12500000000E+03  0.00000000000E+00 0. -1.
         24    1    1    2    0    0 -0.11374553852E+02  0.76769139903E+01  0.94707278294E+02  0.12500000000E+03  0.80419002446E+02 0.  1.
        -24    1    1    2    0    0  0.11374553852E+02 -0.76769139903E+01 -0.94707278294E+02  0.12500000000E+03  0.80419002446E+02 0.  0.
</event>
<event>
 4    1  0.1599584E-001  0.1250000E+03  0.7546771E-02  0.1126479E+00
        -11   -1    0    0    0    0  0.00000000000E+00  0.00000000000E+00  0.12500000000E+03  0.12500000000E+03  0.00000000000E+00 0.  1.
         11   -1    0    0    0    0 -0.00000000000E+00 -0.00000000000E+00 -0.12500000000E+03  0.12500000000E+03  0.00000000000E+00 0. -1.
         24    1    1    2    0    0 -0.80842864205E+01  0.24725357945E+02  0.92092806631E+02  0.12500000000E+03  0.80419002446E+02 0.  1.
        -24    1    1    2    0    0  0.80842864205E+01 -0.24725357945E+02 -0.92092806631E+02  0.12500000000E+03  0.80419002446E+02 0. -1.
</event>
<event>
 4    1  0.1599584E-001  0.1250000E+03  0.7546771E-02  0.1126479E+00
        -11   -1    0    0    0    0  0.00000000000E+00  0.00000000000E+00  0.12500000000E+03  0.12500000000E+03  0.00000000000E+00 0.  1.
         11   -1    0    0    0    0 -0.00000000000E+00 -0.00000000000E+00 -0.12500000000E+03  0.12500000000E+03  0.00000000000E+00 0. -1.
         24    1    1    2    0    0  0.53893841438E+02  0.55781489677E+02  0.56050542461E+02  0.12500000000E+03  0.80419002446E+02 0.  1.
        -24    1    1    2    0    0 -0.53893841438E+02 -0.55781489677E+02 -0.56050542461E+02  0.12500000000E+03  0.80419002446E+02 0. -1.
</event>
<event>
 4    1  0.1599584E-001  0.1250000E+03  0.7546771E-02  0.1126479E+00
        -11   -1    0    0    0    0  0.00000000000E+00  0.00000000000E+00  0.12500000000E+03  0.12500000000E+03  0.00000000000E+00 0.  1.
         11   -1    0    0    0    0 -0.00000000000E+00 -0.00000000000E+00 -0.12500000000E+03  0.12500000000E+03  0.00000000000E+00 0. -1.
         24    1    1    2    0    0  0.16814323898E+02  0.56611018259E+02  0.75301096733E+02  0.12500000000E+03  0.80419002446E+02 0.  1.
        -24    1    1    2    0    0 -0.16814323898E+02 -0.56611018259E+02 -0.75301096733E+02  0.12500000000E+03  0.80419002446E+02 0. -1.
</event>
<event>
 4    1  0.1599584E-001  0.1250000E+03  0.7546771E-02  0.1126479E+00
        -11   -1    0    0    0    0  0.00000000000E+00  0.00000000000E+00  0.12500000000E+03  0.12500000000E+03  0.00000000000E+00 0.  1.
         11   -1    0    0    0    0 -0.00000000000E+00 -0.00000000000E+00 -0.12500000000E+03  0.12500000000E+03  0.00000000000E+00 0. -1.
         24    1    1    2    0    0  0.74482591074E+02 -0.60044535890E+02  0.21866372120E+01  0.12500000000E+03  0.80419002446E+02 0.  1.
        -24    1    1    2    0    0 -0.74482591074E+02  0.60044535890E+02 -0.21866372120E+01  0.12500000000E+03  0.80419002446E+02 0.  0.
</event>
<event>
 4    1  0.1599584E-001  0.1250000E+03  0.7546771E-02  0.1126479E+00
        -11   -1    0    0    0    0  0.00000000000E+00  0.00000000000E+00  0.12500000000E+03  0.12500000000E+03  0.00000000000E+00 0.  1.
         11   -1    0    0    0    0 -0.00000000000E+00 -0.00000000000E+00 -0.12500000000E+03  0.12500000000E+03  0.00000000000E+00 0. -1.
         24    1    1    2    0    0 -0.62625178640E+02  0.29518808542E+02  0.66064445719E+02  0.12500000000E+03  0.80419002446E+02 0.  1.
        -24    1    1    2    0    0  0.62625178640E+02 -0.29518808542E+02 -0.66064445719E+02  0.12500000000E+03  0.80419002446E+02 0. -1.
</event>
<event>
 4    1  0.1599584E-001  0.1250000E+03  0.7546771E-02  0.1126479E+00
        -11   -1    0    0    0    0  0.00000000000E+00  0.00000000000E+00  0.12500000000E+03  0.12500000000E+03  0.00000000000E+00 0.  1.
         11   -1    0    0    0    0 -0.00000000000E+00 -0.00000000000E+00 -0.12500000000E+03  0.12500000000E+03  0.00000000000E+00 0. -1.
         24    1    1    2    0    0  0.83965811807E+02 -0.43102528892E+01  0.45705012998E+02  0.12500000000E+03  0.80419002446E+02 0.  1.
        -24    1    1    2    0    0 -0.83965811807E+02  0.43102528892E+01 -0.45705012998E+02  0.12500000000E+03  0.80419002446E+02 0. -1.
</event>
<event>
 4    1  0.1599584E-001  0.1250000E+03  0.7546771E-02  0.1126479E+00
        -11   -1    0    0    0    0  0.00000000000E+00  0.00000000000E+00  0.12500000000E+03  0.12500000000E+03  0.00000000000E+00 0.  1.
         11   -1    0    0    0    0 -0.00000000000E+00 -0.00000000000E+00 -0.12500000000E+03  0.12500000000E+03  0.00000000000E+00 0. -1.
         24    1    1    2    0    0  0.49474476075E+02  0.68149607155E+01  0.81630978024E+02  0.12500000000E+03  0.80419002446E+02 0.  1.
        -24    1    1    2    0    0 -0.49474476075E+02 -0.68149607155E+01 -0.81630978024E+02  0.12500000000E+03  0.80419002446E+02 0. -1.
</event>
<event>
 4    1  0.1599584E-001  0.1250000E+03  0.7546771E-02  0.1126479E+00
        -11   -1    0    0    0    0  0.00000000000E+00  0.00000000000E+00  0.12500000000E+03  0.12500000000E+03  0.00000000000E+00 0.  1.
         11   -1    0    0    0    0 -0.00000000000E+00 -0.00000000000E+00 -0.12500000000E+03  0.12500000000E+03  0.00000000000E+00 0. -1.
         24    1    1    2    0    0 -0.27185277248E+02  0.61909524321E+02  0.67719683585E+02  0.12500000000E+03  0.80419002446E+02 0.  0.
        -24    1    1    2    0    0  0.27185277248E+02 -0.61909524321E+02 -0.67719683585E+02  0.12500000000E+03  0.80419002446E+02 0.  1.
</event>
<event>
 4    1  0.1599584E-001  0.1250000E+03  0.7546771E-02  0.1126479E+00
        -11   -1    0    0    0    0  0.00000000000E+00  0.00000000000E+00  0.12500000000E+03  0.12500000000E+03  0.00000000000E+00 0.  1.
         11   -1    0    0    0    0 -0.00000000000E+00 -0.00000000000E+00 -0.12500000000E+03  0.12500000000E+03  0.00000000000E+00 0. -1.
         24    1    1    2    0    0  0.53210282495E+02  0.13196480931E+02  0.78436616280E+02  0.12500000000E+03  0.80419002446E+02 0.  1.
        -24    1    1    2    0    0 -0.53210282495E+02 -0.13196480931E+02 -0.78436616280E+02  0.12500000000E+03  0.80419002446E+02 0. -1.
</event>
<event>
 4    1  0.1599584E-001  0.1250000E+03  0.7546771E-02  0.1126479E+00
        -11   -1    0    0    0    0  0.00000000000E+00  0.00000000000E+00  0.12500000000E+03  0.12500000000E+03  0.00000000000E+00 0.  1.
         11   -1    0    0    0    0 -0.00000000000E+00 -0.00000000000E+00 -0.12500000000E+03  0.12500000000E+03  0.00000000000E+00 0. -1.
         24    1    1    2    0    0  0.63837307721E+02  0.20398394744E+01  0.71263042620E+02  0.12500000000E+03  0.80419002446E+02 0.  1.
        -24    1    1    2    0    0 -0.63837307721E+02 -0.20398394744E+01 -0.71263042620E+02  0.12500000000E+03  0.80419002446E+02 0. -1.
</event>
<event>
 4    1  0.1599584E-001  0.1250000E+03  0.7546771E-02  0.1126479E+00
        -11   -1    0    0    0    0  0.00000000000E+00  0.00000000000E+00  0.12500000000E+03  0.12500000000E+03  0.00000000000E+00 0.  1.
         11   -1    0    0    0    0 -0.00000000000E+00 -0.00000000000E+00 -0.12500000000E+03  0.12500000000E+03  0.00000000000E+00 0. -1.
         24    1    1    2    0    0 -0.64388243974E+02 -0.23020752293E+02  0.66947614202E+02  0.12500000000E+03  0.80419002446E+02 0.  1.
        -24    1    1    2    0    0  0.64388243974E+02  0.23020752293E+02 -0.66947614202E+02  0.12500000000E+03  0.80419002446E+02 0. -1.
</event>
<event>
 4    1  0.1599584E-001  0.1250000E+03  0.7546771E-02  0.1126479E+00
        -11   -1    0    0    0    0  0.00000000000E+00  0.00000000000E+00  0.12500000000E+03  0.12500000000E+03  0.00000000000E+00 0.  1.
         11   -1    0    0    0    0 -0.00000000000E+00 -0.00000000000E+00 -0.12500000000E+03  0.12500000000E+03  0.00000000000E+00 0. -1.
         24    1    1    2    0    0  0.75949590538E+01 -0.11378314208E+02  0.94713434149E+02  0.12500000000E+03  0.80419002446E+02 0.  1.
        -24    1    1    2    0    0 -0.75949590538E+01  0.11378314208E+02 -0.94713434149E+02  0.12500000000E+03  0.80419002446E+02 0. -1.
</event>
<event>
 4    1  0.1599584E-001  0.1250000E+03  0.7546771E-02  0.1126479E+00
        -11   -1    0    0    0    0  0.00000000000E+00  0.00000000000E+00  0.12500000000E+03  0.12500000000E+03  0.00000000000E+00 0.  1.
         11   -1    0    0    0    0 -0.00000000000E+00 -0.00000000000E+00 -0.12500000000E+03  0.12500000000E+03  0.00000000000E+00 0. -1.
         24    1    1    2    0    0 -0.48277289547E+02 -0.55479493062E+02  0.61230002525E+02  0.12500000000E+03  0.80419002446E+02 0.  1.
        -24    1    1    2    0    0  0.48277289547E+02  0.55479493062E+02 -0.61230002525E+02  0.12500000000E+03  0.80419002446E+02 0. -1.
</event>
<event>
 4    1  0.1599584E-001  0.1250000E+03  0.7546771E-02  0.1126479E+00
        -11   -1    0    0    0    0  0.00000000000E+00  0.00000000000E+00  0.12500000000E+03  0.12500000000E+03  0.00000000000E+00 0.  1.
         11   -1    0    0    0    0 -0.00000000000E+00 -0.00000000000E+00 -0.12500000000E+03  0.12500000000E+03  0.00000000000E+00 0. -1.
         24    1    1    2    0    0  0.20107754787E+02  0.28393972280E+02  0.89147319540E+02  0.12500000000E+03  0.80419002446E+02 0.  1.
        -24    1    1    2    0    0 -0.20107754787E+02 -0.28393972280E+02 -0.89147319540E+02  0.12500000000E+03  0.80419002446E+02 0. -1.
</event>
<event>
 4    1  0.1599584E-001  0.1250000E+03  0.7546771E-02  0.1126479E+00
        -11   -1    0    0    0    0  0.00000000000E+00  0.00000000000E+00  0.12500000000E+03  0.12500000000E+03  0.00000000000E+00 0.  1.
         11   -1    0    0    0    0 -0.00000000000E+00 -0.00000000000E+00 -0.12500000000E+03  0.12500000000E+03  0.00000000000E+00 0. -1.
         24    1    1    2    0    0  0.41622700082E+01  0.72186898667E+01  0.95332838364E+02  0.12500000000E+03  0.80419002446E+02 0.  1.
        -24    1    1    2    0    0 -0.41622700082E+01 -0.72186898667E+01 -0.95332838364E+02  0.12500000000E+03  0.80419002446E+02 0.  0.
</event>
<event>
 4    1  0.1599584E-001  0.1250000E+03  0.7546771E-02  0.1126479E+00
        -11   -1    0    0    0    0  0.00000000000E+00  0.00000000000E+00  0.12500000000E+03  0.12500000000E+03  0.00000000000E+00 0.  1.
         11   -1    0    0    0    0 -0.00000000000E+00 -0.00000000000E+00 -0.12500000000E+03  0.12500000000E+03  0.00000000000E+00 0. -1.
         24    1    1    2    0    0 -0.16846718946E+02 -0.93308012603E+02  0.12945535545E+02  0.12500000000E+03  0.80419002446E+02 0. -1.
        -24    1    1    2    0    0  0.16846718946E+02  0.93308012603E+02 -0.12945535545E+02  0.12500000000E+03  0.80419002446E+02 0.  1.
</event>
<event>
 4    1  0.1599584E-001  0.1250000E+03  0.7546771E-02  0.1126479E+00
        -11   -1    0    0    0    0  0.00000000000E+00  0.00000000000E+00  0.12500000000E+03  0.12500000000E+03  0.00000000000E+00 0.  1.
         11   -1    0    0    0    0 -0.00000000000E+00 -0.00000000000E+00 -0.12500000000E+03  0.12500000000E+03  0.00000000000E+00 0. -1.
         24    1    1    2    0    0 -0.56941958999E+02  0.29512023604E+02  0.71024205830E+02  0.12500000000E+03  0.80419002446E+02 0.  1.
        -24    1    1    2    0    0  0.56941958999E+02 -0.29512023604E+02 -0.71024205830E+02  0.12500000000E+03  0.80419002446E+02 0. -1.
</event>
<event>
 4    1  0.1599584E-001  0.1250000E+03  0.7546771E-02  0.1126479E+00
        -11   -1    0    0    0    0  0.00000000000E+00  0.00000000000E+00  0.12500000000E+03  0.12500000000E+03  0.00000000000E+00 0.  1.
         11   -1    0    0    0    0 -0.00000000000E+00 -0.00000000000E+00 -0.12500000000E+03  0.12500000000E+03  0.00000000000E+00 0. -1.
         24    1    1    2    0    0  0.32837970379E+02 -0.24159214879E+02  0.86578196351E+02  0.12500000000E+03  0.80419002446E+02 0.  1.
        -24    1    1    2    0    0 -0.32837970379E+02  0.24159214879E+02 -0.86578196351E+02  0.12500000000E+03  0.80419002446E+02 0. -1.
</event>
<event>
 4    1  0.1599584E-001  0.1250000E+03  0.7546771E-02  0.1126479E+00
        -11   -1    0    0    0    0  0.00000000000E+00  0.00000000000E+00  0.12500000000E+03  0.12500000000E+03  0.00000000000E+00 0.  1.
         11   -1    0    0    0    0 -0.00000000000E+00 -0.00000000000E+00 -0.12500000000E+03  0.12500000000E+03  0.00000000000E+00 0. -1.
         24    1    1    2    0    0  0.26513091356E+02 -0.46417296753E+02  0.79374269096E+02  0.12500000000E+03  0.80419002446E+02 0.  1.
        -24    1    1    2    0    0 -0.26513091356E+02  0.46417296753E+02 -0.79374269096E+02  0.12500000000E+03  0.80419002446E+02 0. -1.
</event>
<event>
 4    1  0.1599584E-001  0.1250000E+03  0.7546771E-02  0.1126479E+00
        -11   -1    0    0    0    0  0.00000000000E+00  0.00000000000E+00  0.12500000000E+03  0.12500000000E+03  0.00000000000E+00 0.  1.
         11   -1    0    0    0    0 -0.00000000000E+00 -0.00000000000E+00 -0.12500000000E+03  0.12500000000E+03  0.00000000000E+00 0. -1.
         24    1    1    2    0    0  0.51137733584E+01  0.15757870473E+01  0.95546586872E+02  0.12500000000E+03  0.80419002446E+02 0.  1.
        -24    1    1    2    0    0 -0.51137733584E+01 -0.15757870473E+01 -0.95546586872E+02  0.12500000000E+03  0.80419002446E+02 0. -1.
</event>
<event>
 4    1  0.1599584E-001  0.1250000E+03  0.7546771E-02  0.1126479E+00
        -11   -1    0    0    0    0  0.00000000000E+00  0.00000000000E+00  0.12500000000E+03  0.12500000000E+03  0.00000000000E+00 0.  1.
         11   -1    0    0    0    0 -0.00000000000E+00 -0.00000000000E+00 -0.12500000000E+03  0.12500000000E+03  0.00000000000E+00 0. -1.
         24    1    1    2    0    0 -0.10737775531E+02  0.25728742348E+01  0.95057164593E+02  0.12500000000E+03  0.80419002446E+02 0.  1.
        -24    1    1    2    0    0  0.10737775531E+02 -0.25728742348E+01 -0.95057164593E+02  0.12500000000E+03  0.80419002446E+02 0. -1.
</event>
<event>
 4    1  0.1599584E-001  0.1250000E+03  0.7546771E-02  0.1126479E+00
        -11   -1    0    0    0    0  0.00000000000E+00  0.00000000000E+00  0.12500000000E+03  0.12500000000E+03  0.00000000000E+00 0.  1.
         11   -1    0    0    0    0 -0.00000000000E+00 -0.00000000000E+00 -0.12500000000E+03  0.12500000000E+03  0.00000000000E+00 0. -1.
         24    1    1    2    0    0  0.22666696899E+02 -0.18806028174E+02  0.91051294344E+02  0.12500000000E+03  0.80419002446E+02 0.  1.
        -24    1    1    2    0    0 -0.22666696899E+02  0.18806028174E+02 -0.91051294344E+02  0.12500000000E+03  0.80419002446E+02 0. -1.
</event>
<event>
 4    1  0.1599584E-001  0.1250000E+03  0.7546771E-02  0.1126479E+00
        -11   -1    0    0    0    0  0.00000000000E+00  0.00000000000E+00  0.12500000000E+03  0.12500000000E+03  0.00000000000E+00 0.  1.
         11   -1    0    0    0    0 -0.00000000000E+00 -0.00000000000E+00 -0.12500000000E+03  0.12500000000E+03  0.00000000000E+00 0. -1.
         24    1    1    2    0    0  0.38222638767E+02  0.35485813808E+02  0.80234474820E+02  0.12500000000E+03  0.80419002446E+02 0.  1.
        -24    1    1    2    0    0 -0.38222638767E+02 -0.35485813808E+02 -0.80234474820E+02  0.12500000000E+03  0.80419002446E+02 0. -1.
</event>
<event>
 4    1  0.1599584E-001  0.1250000E+03  0.7546771E-02  0.1126479E+00
        -11   -1    0    0    0    0  0.00000000000E+00  0.00000000000E+00  0.12500000000E+03  0.12500000000E+03  0.00000000000E+00 0. -1.
         11   -1    0    0    0    0 -0.00000000000E+00 -0.00000000000E+00 -0.12500000000E+03  0.12500000000E+03  0.00000000000E+00 0.  1.
         24    1    1    2    0    0 -0.44050478667E+02 -0.68526281980E+02  0.50214420765E+02  0.12500000000E+03  0.80419002446E+02 0.  0.
        -24    1    1    2    0    0  0.44050478667E+02  0.68526281980E+02 -0.50214420765E+02  0.12500000000E+03  0.80419002446E+02 0. -1.
</event>
<event>
 4    1  0.1599584E-001  0.1250000E+03  0.7546771E-02  0.1126479E+00
        -11   -1    0    0    0    0  0.00000000000E+00  0.00000000000E+00  0.12500000000E+03  0.12500000000E+03  0.00000000000E+00 0.  1.
         11   -1    0    0    0    0 -0.00000000000E+00 -0.00000000000E+00 -0.12500000000E+03  0.12500000000E+03  0.00000000000E+00 0. -1.
         24    1    1    2    0    0 -0.55655858164E+02 -0.44179335527E+02  0.64096769108E+02  0.12500000000E+03  0.80419002446E+02 0.  1.
        -24    1    1    2    0    0  0.55655858164E+02  0.44179335527E+02 -0.64096769108E+02  0.12500000000E+03  0.80419002446E+02 0. -1.
</event>
<event>
 4    1  0.1599584E-001  0.1250000E+03  0.7546771E-02  0.1126479E+00
        -11   -1    0    0    0    0  0.00000000000E+00  0.00000000000E+00  0.12500000000E+03  0.12500000000E+03  0.00000000000E+00 0.  1.
         11   -1    0    0    0    0 -0.00000000000E+00 -0.00000000000E+00 -0.12500000000E+03  0.12500000000E+03  0.00000000000E+00 0. -1.
         24    1    1    2    0    0 -0.16884447959E+02  0.57001169933E+02  0.74990439984E+02  0.12500000000E+03  0.80419002446E+02 0.  1.
        -24    1    1    2    0    0  0.16884447959E+02 -0.57001169933E+02 -0.74990439984E+02  0.12500000000E+03  0.80419002446E+02 0.  0.
</event>
<event>
 4    1  0.1599584E-001  0.1250000E+03  0.7546771E-02  0.1126479E+00
        -11   -1    0    0    0    0  0.00000000000E+00  0.00000000000E+00  0.12500000000E+03  0.12500000000E+03  0.00000000000E+00 0.  1.
         11   -1    0    0    0    0 -0.00000000000E+00 -0.00000000000E+00 -0.12500000000E+03  0.12500000000E+03  0.00000000000E+00 0. -1.
         24    1    1    2    0    0 -0.59641353268E+00  0.37915544507E+02  0.87862619021E+02  0.12500000000E+03  0.80419002446E+02 0.  1.
        -24    1    1    2    0    0  0.59641353268E+00 -0.37915544507E+02 -0.87862619021E+02  0.12500000000E+03  0.80419002446E+02 0.  0.
</event>
<event>
 4    1  0.1599584E-001  0.1250000E+03  0.7546771E-02  0.1126479E+00
        -11   -1    0    0    0    0  0.00000000000E+00  0.00000000000E+00  0.12500000000E+03  0.12500000000E+03  0.00000000000E+00 0.  1.
         11   -1    0    0    0    0 -0.00000000000E+00 -0.00000000000E+00 -0.12500000000E+03  0.12500000000E+03  0.00000000000E+00 0. -1.
         24    1    1    2    0    0  0.55361595009E+02  0.33594174504E+02  0.70457854659E+02  0.12500000000E+03  0.80419002446E+02 0.  1.
        -24    1    1    2    0    0 -0.55361595009E+02 -0.33594174504E+02 -0.70457854659E+02  0.12500000000E+03  0.80419002446E+02 0. -1.
</event>
<event>
 4    1  0.1599584E-001  0.1250000E+03  0.7546771E-02  0.1126479E+00
        -11   -1    0    0    0    0  0.00000000000E+00  0.00000000000E+00  0.12500000000E+03  0.12500000000E+03  0.00000000000E+00 0.  1.
         11   -1    0    0    0    0 -0.00000000000E+00 -0.00000000000E+00 -0.12500000000E+03  0.12500000000E+03  0.00000000000E+00 0. -1.
         24    1    1    2    0    0 -0.62047235022E+02  0.49492086319E+00  0.72853824368E+02  0.12500000000E+03  0.80419002446E+02 0.  0.
        -24    1    1    2    0    0  0.62047235022E+02 -0.49492086319E+00 -0.72853824368E+02  0.12500000000E+03  0.80419002446E+02 0.  1.
</event>
<event>
 4    1  0.1599584E-001  0.1250000E+03  0.7546771E-02  0.1126479E+00
        -11   -1    0    0    0    0  0.00000000000E+00  0.00000000000E+00  0.12500000000E+03  0.12500000000E+03  0.00000000000E+00 0. -1.
         11   -1    0    0    0    0 -0.00000000000E+00 -0.00000000000E+00 -0.12500000000E+03  0.12500000000E+03  0.00000000000E+00 0.  1.
         24    1    1    2    0    0  0.57527387741E+02  0.69958913343E+02 -0.30889061966E+02  0.12500000000E+03  0.80419002446E+02 0.  0.
        -24    1    1    2    0    0 -0.57527387741E+02 -0.69958913343E+02  0.30889061966E+02  0.12500000000E+03  0.80419002446E+02 0.  0.
</event>
<event>
 4    1  0.1599584E-001  0.1250000E+03  0.7546771E-02  0.1126479E+00
        -11   -1    0    0    0    0  0.00000000000E+00  0.00000000000E+00  0.12500000000E+03  0.12500000000E+03  0.00000000000E+00 0.  1.
         11   -1    0    0    0    0 -0.00000000000E+00 -0.00000000000E+00 -0.12500000000E+03  0.12500000000E+03  0.00000000000E+00 0. -1.
         24    1    1    2    0    0  0.10248261123E+00 -0.68780212280E+01  0.95448763046E+02  0.12500000000E+03  0.80419002446E+02 0.  1.
        -24    1    1    2    0    0 -0.10248261123E+00  0.68780212280E+01 -0.95448763046E+02  0.12500000000E+03  0.80419002446E+02 0.  0.
</event>
<event>
 4    1  0.1599584E-001  0.1250000E+03  0.7546771E-02  0.1126479E+00
        -11   -1    0    0    0    0  0.00000000000E+00  0.00000000000E+00  0.12500000000E+03  0.12500000000E+03  0.00000000000E+00 0.  1.
         11   -1    0    0    0    0 -0.00000000000E+00 -0.00000000000E+00 -0.12500000000E+03  0.12500000000E+03  0.00000000000E+00 0. -1.
         24    1    1    2    0    0 -0.14553272502E+02 -0.23250496190E+02  0.91680972574E+02  0.12500000000E+03  0.80419002446E+02 0.  0.
        -24    1    1    2    0    0  0.14553272502E+02  0.23250496190E+02 -0.91680972574E+02  0.12500000000E+03  0.80419002446E+02 0.  0.
</event>
<event>
 4    1  0.1599584E-001  0.1250000E+03  0.7546771E-02  0.1126479E+00
        -11   -1    0    0    0    0  0.00000000000E+00  0.00000000000E+00  0.12500000000E+03  0.12500000000E+03  0.00000000000E+00 0.  1.
         11   -1    0    0    0    0 -0.00000000000E+00 -0.00000000000E+00 -0.12500000000E+03  0.12500000000E+03  0.00000000000E+00 0. -1.
         24    1    1    2    0    0 -0.37743406442E+02 -0.62065389924E+02  0.62298528789E+02  0.12500000000E+03  0.80419002446E+02 0.  0.
        -24    1    1    2    0    0  0.37743406442E+02  0.62065389924E+02 -0.62298528789E+02  0.12500000000E+03  0.80419002446E+02 0. -1.
</event>
<event>
 4    1  0.1599584E-001  0.1250000E+03  0.7546771E-02  0.1126479E+00
        -11   -1    0    0    0    0  0.00000000000E+00  0.00000000000E+00  0.12500000000E+03  0.12500000000E+03  0.00000000000E+00 0.  1.
         11   -1    0    0    0    0 -0.00000000000E+00 -0.00000000000E+00 -0.12500000000E+03  0.12500000000E+03  0.00000000000E+00 0. -1.
         24    1    1    2    0    0  0.86086526100E+02  0.38354285036E+01  0.41619509342E+02  0.12500000000E+03  0.80419002446E+02 0.  1.
        -24    1    1    2    0    0 -0.86086526100E+02 -0.38354285036E+01 -0.41619509342E+02  0.12500000000E+03  0.80419002446E+02 0. -1.
</event>
<event>
 4    1  0.1599584E-001  0.1250000E+03  0.7546771E-02  0.1126479E+00
        -11   -1    0    0    0    0  0.00000000000E+00  0.00000000000E+00  0.12500000000E+03  0.12500000000E+03  0.00000000000E+00 0.  1.
         11   -1    0    0    0    0 -0.00000000000E+00 -0.00000000000E+00 -0.12500000000E+03  0.12500000000E+03  0.00000000000E+00 0. -1.
         24    1    1    2    0    0 -0.36441587412E+02  0.35180030873E+02  0.81192118954E+02  0.12500000000E+03  0.80419002446E+02 0.  1.
        -24    1    1    2    0    0  0.36441587412E+02 -0.35180030873E+02 -0.81192118954E+02  0.12500000000E+03  0.80419002446E+02 0. -1.
</event>
<event>
 4    1  0.1599584E-001  0.1250000E+03  0.7546771E-02  0.1126479E+00
        -11   -1    0    0    0    0  0.00000000000E+00  0.00000000000E+00  0.12500000000E+03  0.12500000000E+03  0.00000000000E+00 0.  1.
         11   -1    0    0    0    0 -0.00000000000E+00 -0.00000000000E+00 -0.12500000000E+03  0.12500000000E+03  0.00000000000E+00 0. -1.
         24    1    1    2    0    0  0.18701427877E+02  0.18030076605E+01  0.93833841466E+02  0.12500000000E+03  0.80419002446E+02 0.  1.
        -24    1    1    2    0    0 -0.18701427877E+02 -0.18030076605E+01 -0.93833841466E+02  0.12500000000E+03  0.80419002446E+02 0. -1.
</event>
<event>
 4    1  0.1599584E-001  0.1250000E+03  0.7546771E-02  0.1126479E+00
        -11   -1    0    0    0    0  0.00000000000E+00  0.00000000000E+00  0.12500000000E+03  0.12500000000E+03  0.00000000000E+00 0.  1.
         11   -1    0    0    0    0 -0.00000000000E+00 -0.00000000000E+00 -0.12500000000E+03  0.12500000000E+03  0.00000000000E+00 0. -1.
         24    1    1    2    0    0 -0.64828620068E+02  0.69472528033E+02 -0.11340278412E+02  0.12500000000E+03  0.80419002446E+02 0.  1.
        -24    1    1    2    0    0  0.64828620068E+02 -0.69472528033E+02  0.11340278412E+02  0.12500000000E+03  0.80419002446E+02 0.  0.
</event>
<event>
 4    1  0.1599584E-001  0.1250000E+03  0.7546771E-02  0.1126479E+00
        -11   -1    0    0    0    0  0.00000000000E+00  0.00000000000E+00  0.12500000000E+03  0.12500000000E+03  0.00000000000E+00 0.  1.
         11   -1    0    0    0    0 -0.00000000000E+00 -0.00000000000E+00 -0.12500000000E+03  0.12500000000E+03  0.00000000000E+00 0. -1.
         24    1    1    2    0    0 -0.12710048481E+02 -0.24640064482E+02  0.91592062623E+02  0.12500000000E+03  0.80419002446E+02 0.  1.
        -24    1    1    2    0    0  0.12710048481E+02  0.24640064482E+02 -0.91592062623E+02  0.12500000000E+03  0.80419002446E+02 0. -1.
</event>
<event>
 4    1  0.1599584E-001  0.1250000E+03  0.7546771E-02  0.1126479E+00
        -11   -1    0    0    0    0  0.00000000000E+00  0.00000000000E+00  0.12500000000E+03  0.12500000000E+03  0.00000000000E+00 0.  1.
         11   -1    0    0    0    0 -0.00000000000E+00 -0.00000000000E+00 -0.12500000000E+03  0.12500000000E+03  0.00000000000E+00 0. -1.
         24    1    1    2    0    0 -0.28941531357E+01  0.24555900377E+02  0.92446826230E+02  0.12500000000E+03  0.80419002446E+02 0.  0.
        -24    1    1    2    0    0  0.28941531357E+01 -0.24555900377E+02 -0.92446826230E+02  0.12500000000E+03  0.80419002446E+02 0. -1.
</event>
<event>
 4    1  0.1599584E-001  0.1250000E+03  0.7546771E-02  0.1126479E+00
        -11   -1    0    0    0    0  0.00000000000E+00  0.00000000000E+00  0.12500000000E+03  0.12500000000E+03  0.00000000000E+00 0.  1.
         11   -1    0    0    0    0 -0.00000000000E+00 -0.00000000000E+00 -0.12500000000E+03  0.12500000000E+03  0.00000000000E+00 0. -1.
         24    1    1    2    0    0 -0.38068711516E+02  0.76461141511E+02  0.43153807340E+02  0.12500000000E+03  0.80419002446E+02 0.  0.
        -24    1    1    2    0    0  0.38068711516E+02 -0.76461141511E+02 -0.43153807340E+02  0.12500000000E+03  0.80419002446E+02 0.  1.
</event>
<event>
 4    1  0.1599584E-001  0.1250000E+03  0.7546771E-02  0.1126479E+00
        -11   -1    0    0    0    0  0.00000000000E+00  0.00000000000E+00  0.12500000000E+03  0.12500000000E+03  0.00000000000E+00 0.  1.
         11   -1    0    0    0    0 -0.00000000000E+00 -0.00000000000E+00 -0.12500000000E+03  0.12500000000E+03  0.00000000000E+00 0. -1.
         24    1    1    2    0    0 -0.19904816694E+02 -0.60793135128E+02  0.71174272313E+02  0.12500000000E+03  0.80419002446E+02 0.  1.
        -24    1    1    2    0    0  0.19904816694E+02  0.60793135128E+02 -0.71174272313E+02  0.12500000000E+03  0.80419002446E+02 0. -1.
</event>
<event>
 4    1  0.1599584E-001  0.1250000E+03  0.7546771E-02  0.1126479E+00
        -11   -1    0    0    0    0  0.00000000000E+00  0.00000000000E+00  0.12500000000E+03  0.12500000000E+03  0.00000000000E+00 0.  1.
         11   -1    0    0    0    0 -0.00000000000E+00 -0.00000000000E+00 -0.12500000000E+03  0.12500000000E+03  0.00000000000E+00 0. -1.
         24    1    1    2    0    0  0.26808333274E+02 -0.41597044729E+02  0.81907161973E+02  0.12500000000E+03  0.80419002446E+02 0.  1.
        -24    1    1    2    0    0 -0.26808333274E+02  0.41597044729E+02 -0.81907161973E+02  0.12500000000E+03  0.80419002446E+02 0. -1.
</event>
<event>
 4    1  0.1599584E-001  0.1250000E+03  0.7546771E-02  0.1126479E+00
        -11   -1    0    0    0    0  0.00000000000E+00  0.00000000000E+00  0.12500000000E+03  0.12500000000E+03  0.00000000000E+00 0.  1.
         11   -1    0    0    0    0 -0.00000000000E+00 -0.00000000000E+00 -0.12500000000E+03  0.12500000000E+03  0.00000000000E+00 0. -1.
         24    1    1    2    0    0 -0.84811273998E+02 -0.14419855612E+02  0.41915386348E+02  0.12500000000E+03  0.80419002446E+02 0.  0.
        -24    1    1    2    0    0  0.84811273998E+02  0.14419855612E+02 -0.41915386348E+02  0.12500000000E+03  0.80419002446E+02 0.  1.
</event>
<event>
 4    1  0.1599584E-001  0.1250000E+03  0.7546771E-02  0.1126479E+00
        -11   -1    0    0    0    0  0.00000000000E+00  0.00000000000E+00  0.12500000000E+03  0.12500000000E+03  0.00000000000E+00 0.  1.
         11   -1    0    0    0    0 -0.00000000000E+00 -0.00000000000E+00 -0.12500000000E+03  0.12500000000E+03  0.00000000000E+00 0. -1.
         24    1    1    2    0    0 -0.20652547198E+02 -0.39728263178E+02  0.84574945727E+02  0.12500000000E+03  0.80419002446E+02 0.  1.
        -24    1    1    2    0    0  0.20652547198E+02  0.39728263178E+02 -0.84574945727E+02  0.12500000000E+03  0.80419002446E+02 0. -1.
</event>
<event>
 4    1  0.1599584E-001  0.1250000E+03  0.7546771E-02  0.1126479E+00
        -11   -1    0    0    0    0  0.00000000000E+00  0.00000000000E+00  0.12500000000E+03  0.12500000000E+03  0.00000000000E+00 0.  1.
         11   -1    0    0    0    0 -0.00000000000E+00 -0.00000000000E+00 -0.12500000000E+03  0.12500000000E+03  0.00000000000E+00 0. -1.
         24    1    1    2    0    0  0.10422589503E+02  0.26088594179E+01  0.95091258937E+02  0.12500000000E+03  0.80419002446E+02 0.  1.
        -24    1    1    2    0    0 -0.10422589503E+02 -0.26088594179E+01 -0.95091258937E+02  0.12500000000E+03  0.80419002446E+02 0. -1.
</event>
<event>
 4    1  0.1599584E-001  0.1250000E+03  0.7546771E-02  0.1126479E+00
        -11   -1    0    0    0    0  0.00000000000E+00  0.00000000000E+00  0.12500000000E+03  0.12500000000E+03  0.00000000000E+00 0.  1.
         11   -1    0    0    0    0 -0.00000000000E+00 -0.00000000000E+00 -0.12500000000E+03  0.12500000000E+03  0.00000000000E+00 0. -1.
         24    1    1    2    0    0 -0.61778279388E+02 -0.10973537432E+02  0.72255170872E+02  0.12500000000E+03  0.80419002446E+02 0.  1.
        -24    1    1    2    0    0  0.61778279388E+02  0.10973537432E+02 -0.72255170872E+02  0.12500000000E+03  0.80419002446E+02 0. -1.
</event>
<event>
 4    1  0.1599584E-001  0.1250000E+03  0.7546771E-02  0.1126479E+00
        -11   -1    0    0    0    0  0.00000000000E+00  0.00000000000E+00  0.12500000000E+03  0.12500000000E+03  0.00000000000E+00 0.  1.
         11   -1    0    0    0    0 -0.00000000000E+00 -0.00000000000E+00 -0.12500000000E+03  0.12500000000E+03  0.00000000000E+00 0. -1.
         24    1    1    2    0    0 -0.67602533866E+02  0.66510508736E+02 -0.12807563713E+02  0.12500000000E+03  0.80419002446E+02 0.  0.
        -24    1    1    2    0    0  0.67602533866E+02 -0.66510508736E+02  0.12807563713E+02  0.12500000000E+03  0.80419002446E+02 0. -1.
</event>
<event>
 4    1  0.1599584E-001  0.1250000E+03  0.7546771E-02  0.1126479E+00
        -11   -1    0    0    0    0  0.00000000000E+00  0.00000000000E+00  0.12500000000E+03  0.12500000000E+03  0.00000000000E+00 0.  1.
         11   -1    0    0    0    0 -0.00000000000E+00 -0.00000000000E+00 -0.12500000000E+03  0.12500000000E+03  0.00000000000E+00 0. -1.
         24    1    1    2    0    0  0.25216112365E+02  0.55435338497E+02  0.73816359763E+02  0.12500000000E+03  0.80419002446E+02 0.  1.
        -24    1    1    2    0    0 -0.25216112365E+02 -0.55435338497E+02 -0.73816359763E+02  0.12500000000E+03  0.80419002446E+02 0. -1.
</event>
<event>
 4    1  0.1599584E-001  0.1250000E+03  0.7546771E-02  0.1126479E+00
        -11   -1    0    0    0    0  0.00000000000E+00  0.00000000000E+00  0.12500000000E+03  0.12500000000E+03  0.00000000000E+00 0.  1.
         11   -1    0    0    0    0 -0.00000000000E+00 -0.00000000000E+00 -0.12500000000E+03  0.12500000000E+03  0.00000000000E+00 0. -1.
         24    1    1    2    0    0  0.12831651861E+01 -0.37660707979E+02  0.87964814598E+02  0.12500000000E+03  0.80419002446E+02 0.  0.
        -24    1    1    2    0    0 -0.12831651861E+01  0.37660707979E+02 -0.87964814598E+02  0.12500000000E+03  0.80419002446E+02 0.  0.
</event>
<event>
 4    1  0.1599584E-001  0.1250000E+03  0.7546771E-02  0.1126479E+00
        -11   -1    0    0    0    0  0.00000000000E+00  0.00000000000E+00  0.12500000000E+03  0.12500000000E+03  0.00000000000E+00 0.  1.
         11   -1    0    0    0    0 -0.00000000000E+00 -0.00000000000E+00 -0.12500000000E+03  0.12500000000E+03  0.00000000000E+00 0. -1.
         24    1    1    2    0    0  0.10776345040E+01  0.63170911375E+02 -0.71875299690E+02  0.12500000000E+03  0.80419002446E+02 0.  1.
        -24    1    1    2    0    0 -0.10776345040E+01 -0.63170911375E+02  0.71875299690E+02  0.12500000000E+03  0.80419002446E+02 0.  1.
</event>
<event>
 4    1  0.1599584E-001  0.1250000E+03  0.7546771E-02  0.1126479E+00
        -11   -1    0    0    0    0  0.00000000000E+00  0.00000000000E+00  0.12500000000E+03  0.12500000000E+03  0.00000000000E+00 0.  1.
         11   -1    0    0    0    0 -0.00000000000E+00 -0.00000000000E+00 -0.12500000000E+03  0.12500000000E+03  0.00000000000E+00 0. -1.
         24    1    1    2    0    0  0.42215016619E+02  0.16985463659E+02  0.84185333888E+02  0.12500000000E+03  0.80419002446E+02 0.  1.
        -24    1    1    2    0    0 -0.42215016619E+02 -0.16985463659E+02 -0.84185333888E+02  0.12500000000E+03  0.80419002446E+02 0. -1.
</event>
<event>
 4    1  0.1599584E-001  0.1250000E+03  0.7546771E-02  0.1126479E+00
        -11   -1    0    0    0    0  0.00000000000E+00  0.00000000000E+00  0.12500000000E+03  0.12500000000E+03  0.00000000000E+00 0.  1.
         11   -1    0    0    0    0 -0.00000000000E+00 -0.00000000000E+00 -0.12500000000E+03  0.12500000000E+03  0.00000000000E+00 0. -1.
         24    1    1    2    0    0 -0.24520269840E+02 -0.39238102681E+02  0.83767008485E+02  0.12500000000E+03  0.80419002446E+02 0.  1.
        -24    1    1    2    0    0  0.24520269840E+02  0.39238102681E+02 -0.83767008485E+02  0.12500000000E+03  0.80419002446E+02 0. -1.
</event>
<event>
 4    1  0.1599584E-001  0.1250000E+03  0.7546771E-02  0.1126479E+00
        -11   -1    0    0    0    0  0.00000000000E+00  0.00000000000E+00  0.12500000000E+03  0.12500000000E+03  0.00000000000E+00 0.  1.
         11   -1    0    0    0    0 -0.00000000000E+00 -0.00000000000E+00 -0.12500000000E+03  0.12500000000E+03  0.00000000000E+00 0. -1.
         24    1    1    2    0    0  0.31274966614E+02 -0.23900228994E+02  0.87226369654E+02  0.12500000000E+03  0.80419002446E+02 0.  1.
        -24    1    1    2    0    0 -0.31274966614E+02  0.23900228994E+02 -0.87226369654E+02  0.12500000000E+03  0.80419002446E+02 0. -1.
</event>
<event>
 4    1  0.1599584E-001  0.1250000E+03  0.7546771E-02  0.1126479E+00
        -11   -1    0    0    0    0  0.00000000000E+00  0.00000000000E+00  0.12500000000E+03  0.12500000000E+03  0.00000000000E+00 0.  1.
         11   -1    0    0    0    0 -0.00000000000E+00 -0.00000000000E+00 -0.12500000000E+03  0.12500000000E+03  0.00000000000E+00 0. -1.
         24    1    1    2    0    0 -0.40368513932E+02  0.46674667546E+02  0.73141250591E+02  0.12500000000E+03  0.80419002446E+02 0.  1.
        -24    1    1    2    0    0  0.40368513932E+02 -0.46674667546E+02 -0.73141250591E+02  0.12500000000E+03  0.80419002446E+02 0. -1.
</event>
<event>
 4    1  0.1599584E-001  0.1250000E+03  0.7546771E-02  0.1126479E+00
        -11   -1    0    0    0    0  0.00000000000E+00  0.00000000000E+00  0.12500000000E+03  0.12500000000E+03  0.00000000000E+00 0.  1.
         11   -1    0    0    0    0 -0.00000000000E+00 -0.00000000000E+00 -0.12500000000E+03  0.12500000000E+03  0.00000000000E+00 0. -1.
         24    1    1    2    0    0 -0.17447575580E+02 -0.74138962307E+01  0.93799788351E+02  0.12500000000E+03  0.80419002446E+02 0.  0.
        -24    1    1    2    0    0  0.17447575580E+02  0.74138962307E+01 -0.93799788351E+02  0.12500000000E+03  0.80419002446E+02 0. -1.
</event>
<event>
 4    1  0.1599584E-001  0.1250000E+03  0.7546771E-02  0.1126479E+00
        -11   -1    0    0    0    0  0.00000000000E+00  0.00000000000E+00  0.12500000000E+03  0.12500000000E+03  0.00000000000E+00 0.  1.
         11   -1    0    0    0    0 -0.00000000000E+00 -0.00000000000E+00 -0.12500000000E+03  0.12500000000E+03  0.00000000000E+00 0. -1.
         24    1    1    2    0    0  0.27060237301E+02 -0.13895578861E+02  0.90732797218E+02  0.12500000000E+03  0.80419002446E+02 0.  1.
        -24    1    1    2    0    0 -0.27060237301E+02  0.13895578861E+02 -0.90732797218E+02  0.12500000000E+03  0.80419002446E+02 0. -1.
</event>
<event>
 4    1  0.1599584E-001  0.1250000E+03  0.7546771E-02  0.1126479E+00
        -11   -1    0    0    0    0  0.00000000000E+00  0.00000000000E+00  0.12500000000E+03  0.12500000000E+03  0.00000000000E+00 0.  1.
         11   -1    0    0    0    0 -0.00000000000E+00 -0.00000000000E+00 -0.12500000000E+03  0.12500000000E+03  0.00000000000E+00 0. -1.
         24    1    1    2    0    0  0.15177586879E+01  0.64571943124E+02  0.70611221597E+02  0.12500000000E+03  0.80419002446E+02 0.  1.
        -24    1    1    2    0    0 -0.15177586879E+01 -0.64571943124E+02 -0.70611221597E+02  0.12500000000E+03  0.80419002446E+02 0. -1.
</event>
<event>
 4    1  0.1599584E-001  0.1250000E+03  0.7546771E-02  0.1126479E+00
        -11   -1    0    0    0    0  0.00000000000E+00  0.00000000000E+00  0.12500000000E+03  0.12500000000E+03  0.00000000000E+00 0.  1.
         11   -1    0    0    0    0 -0.00000000000E+00 -0.00000000000E+00 -0.12500000000E+03  0.12500000000E+03  0.00000000000E+00 0. -1.
         24    1    1    2    0    0  0.26088675712E+02 -0.72500978164E+01  0.91785625927E+02  0.12500000000E+03  0.80419002446E+02 0.  1.
        -24    1    1    2    0    0 -0.26088675712E+02  0.72500978164E+01 -0.91785625927E+02  0.12500000000E+03  0.80419002446E+02 0. -1.
</event>
<event>
 4    1  0.1599584E-001  0.1250000E+03  0.7546771E-02  0.1126479E+00
        -11   -1    0    0    0    0  0.00000000000E+00  0.00000000000E+00  0.12500000000E+03  0.12500000000E+03  0.00000000000E+00 0.  1.
         11   -1    0    0    0    0 -0.00000000000E+00 -0.00000000000E+00 -0.12500000000E+03  0.12500000000E+03  0.00000000000E+00 0. -1.
         24    1    1    2    0    0  0.87423741194E+02  0.38367598862E+02 -0.65422380573E+01  0.12500000000E+03  0.80419002446E+02 0.  0.
        -24    1    1    2    0    0 -0.87423741194E+02 -0.38367598862E+02  0.65422380573E+01  0.12500000000E+03  0.80419002446E+02 0. -1.
</event>
<event>
 4    1  0.1599584E-001  0.1250000E+03  0.7546771E-02  0.1126479E+00
        -11   -1    0    0    0    0  0.00000000000E+00  0.00000000000E+00  0.12500000000E+03  0.12500000000E+03  0.00000000000E+00 0.  1.
         11   -1    0    0    0    0 -0.00000000000E+00 -0.00000000000E+00 -0.12500000000E+03  0.12500000000E+03  0.00000000000E+00 0. -1.
         24    1    1    2    0    0  0.80832763256E+02 -0.39222964502E+02  0.32945523000E+02  0.12500000000E+03  0.80419002446E+02 0.  1.
        -24    1    1    2    0    0 -0.80832763256E+02  0.39222964502E+02 -0.32945523000E+02  0.12500000000E+03  0.80419002446E+02 0. -1.
</event>
<event>
 4    1  0.1599584E-001  0.1250000E+03  0.7546771E-02  0.1126479E+00
        -11   -1    0    0    0    0  0.00000000000E+00  0.00000000000E+00  0.12500000000E+03  0.12500000000E+03  0.00000000000E+00 0.  1.
         11   -1    0    0    0    0 -0.00000000000E+00 -0.00000000000E+00 -0.12500000000E+03  0.12500000000E+03  0.00000000000E+00 0. -1.
         24    1    1    2    0    0 -0.13673278054E+01  0.13402337995E+02  0.94743294204E+02  0.12500000000E+03  0.80419002446E+02 0.  1.
        -24    1    1    2    0    0  0.13673278054E+01 -0.13402337995E+02 -0.94743294204E+02  0.12500000000E+03  0.80419002446E+02 0.  0.
</event>
<event>
 4    1  0.1599584E-001  0.1250000E+03  0.7546771E-02  0.1126479E+00
        -11   -1    0    0    0    0  0.00000000000E+00  0.00000000000E+00  0.12500000000E+03  0.12500000000E+03  0.00000000000E+00 0.  1.
         11   -1    0    0    0    0 -0.00000000000E+00 -0.00000000000E+00 -0.12500000000E+03  0.12500000000E+03  0.00000000000E+00 0. -1.
         24    1    1    2    0    0 -0.48627646552E+02  0.77946811169E+02 -0.26784896211E+02  0.12500000000E+03  0.80419002446E+02 0. -1.
        -24    1    1    2    0    0  0.48627646552E+02 -0.77946811169E+02  0.26784896211E+02  0.12500000000E+03  0.80419002446E+02 0.  1.
</event>
<event>
 4    1  0.1599584E-001  0.1250000E+03  0.7546771E-02  0.1126479E+00
        -11   -1    0    0    0    0  0.00000000000E+00  0.00000000000E+00  0.12500000000E+03  0.12500000000E+03  0.00000000000E+00 0.  1.
         11   -1    0    0    0    0 -0.00000000000E+00 -0.00000000000E+00 -0.12500000000E+03  0.12500000000E+03  0.00000000000E+00 0. -1.
         24    1    1    2    0    0  0.60589660219E+02 -0.73990326532E+02  0.34797557337E+01  0.12500000000E+03  0.80419002446E+02 0.  1.
        -24    1    1    2    0    0 -0.60589660219E+02  0.73990326532E+02 -0.34797557337E+01  0.12500000000E+03  0.80419002446E+02 0. -1.
</event>
<event>
 4    1  0.1599584E-001  0.1250000E+03  0.7546771E-02  0.1126479E+00
        -11   -1    0    0    0    0  0.00000000000E+00  0.00000000000E+00  0.12500000000E+03  0.12500000000E+03  0.00000000000E+00 0.  1.
         11   -1    0    0    0    0 -0.00000000000E+00 -0.00000000000E+00 -0.12500000000E+03  0.12500000000E+03  0.00000000000E+00 0. -1.
         24    1    1    2    0    0 -0.43041977180E+02  0.63356703727E+02 -0.57368112561E+02  0.12500000000E+03  0.80419002446E+02 0. -1.
        -24    1    1    2    0    0  0.43041977180E+02 -0.63356703727E+02  0.57368112561E+02  0.12500000000E+03  0.80419002446E+02 0.  1.
</event>
<event>
 4    1  0.1599584E-001  0.1250000E+03  0.7546771E-02  0.1126479E+00
        -11   -1    0    0    0    0  0.00000000000E+00  0.00000000000E+00  0.12500000000E+03  0.12500000000E+03  0.00000000000E+00 0.  1.
         11   -1    0    0    0    0 -0.00000000000E+00 -0.00000000000E+00 -0.12500000000E+03  0.12500000000E+03  0.00000000000E+00 0. -1.
         24    1    1    2    0    0  0.26540567125E+02 -0.91941860382E+02  0.27686056416E+00  0.12500000000E+03  0.80419002446E+02 0.  0.
        -24    1    1    2    0    0 -0.26540567125E+02  0.91941860382E+02 -0.27686056416E+00  0.12500000000E+03  0.80419002446E+02 0.  0.
</event>
<event>
 4    1  0.1599584E-001  0.1250000E+03  0.7546771E-02  0.1126479E+00
        -11   -1    0    0    0    0  0.00000000000E+00  0.00000000000E+00  0.12500000000E+03  0.12500000000E+03  0.00000000000E+00 0.  1.
         11   -1    0    0    0    0 -0.00000000000E+00 -0.00000000000E+00 -0.12500000000E+03  0.12500000000E+03  0.00000000000E+00 0. -1.
         24    1    1    2    0    0 -0.93953695428E+02 -0.72729150659E+01  0.16661088423E+02  0.12500000000E+03  0.80419002446E+02 0.  0.
        -24    1    1    2    0    0  0.93953695428E+02  0.72729150659E+01 -0.16661088423E+02  0.12500000000E+03  0.80419002446E+02 0.  0.
</event>
<event>
 4    1  0.1599584E-001  0.1250000E+03  0.7546771E-02  0.1126479E+00
        -11   -1    0    0    0    0  0.00000000000E+00  0.00000000000E+00  0.12500000000E+03  0.12500000000E+03  0.00000000000E+00 0.  1.
         11   -1    0    0    0    0 -0.00000000000E+00 -0.00000000000E+00 -0.12500000000E+03  0.12500000000E+03  0.00000000000E+00 0. -1.
         24    1    1    2    0    0  0.45860259174E+01  0.36205559269E+02  0.88464172917E+02  0.12500000000E+03  0.80419002446E+02 0. -1.
        -24    1    1    2    0    0 -0.45860259174E+01 -0.36205559269E+02 -0.88464172917E+02  0.12500000000E+03  0.80419002446E+02 0.  0.
</event>
<event>
 4    1  0.1599584E-001  0.1250000E+03  0.7546771E-02  0.1126479E+00
        -11   -1    0    0    0    0  0.00000000000E+00  0.00000000000E+00  0.12500000000E+03  0.12500000000E+03  0.00000000000E+00 0.  1.
         11   -1    0    0    0    0 -0.00000000000E+00 -0.00000000000E+00 -0.12500000000E+03  0.12500000000E+03  0.00000000000E+00 0. -1.
         24    1    1    2    0    0  0.13299468750E+02 -0.63546004852E+01  0.94554361239E+02  0.12500000000E+03  0.80419002446E+02 0.  1.
        -24    1    1    2    0    0 -0.13299468750E+02  0.63546004852E+01 -0.94554361239E+02  0.12500000000E+03  0.80419002446E+02 0. -1.
</event>
<event>
 4    1  0.1599584E-001  0.1250000E+03  0.7546771E-02  0.1126479E+00
        -11   -1    0    0    0    0  0.00000000000E+00  0.00000000000E+00  0.12500000000E+03  0.12500000000E+03  0.00000000000E+00 0.  1.
         11   -1    0    0    0    0 -0.00000000000E+00 -0.00000000000E+00 -0.12500000000E+03  0.12500000000E+03  0.00000000000E+00 0. -1.
         24    1    1    2    0    0 -0.55851355756E+01 -0.13000253407E+02  0.94644512348E+02  0.12500000000E+03  0.80419002446E+02 0.  1.
        -24    1    1    2    0    0  0.55851355756E+01  0.13000253407E+02 -0.94644512348E+02  0.12500000000E+03  0.80419002446E+02 0. -1.
</event>
<event>
 4    1  0.1599584E-001  0.1250000E+03  0.7546771E-02  0.1126479E+00
        -11   -1    0    0    0    0  0.00000000000E+00  0.00000000000E+00  0.12500000000E+03  0.12500000000E+03  0.00000000000E+00 0.  1.
         11   -1    0    0    0    0 -0.00000000000E+00 -0.00000000000E+00 -0.12500000000E+03  0.12500000000E+03  0.00000000000E+00 0. -1.
         24    1    1    2    0    0 -0.88570377395E+02  0.47552506728E+01  0.35922971548E+02  0.12500000000E+03  0.80419002446E+02 0.  1.
        -24    1    1    2    0    0  0.88570377395E+02 -0.47552506728E+01 -0.35922971548E+02  0.12500000000E+03  0.80419002446E+02 0. -1.
</event>
<event>
 4    1  0.1599584E-001  0.1250000E+03  0.7546771E-02  0.1126479E+00
        -11   -1    0    0    0    0  0.00000000000E+00  0.00000000000E+00  0.12500000000E+03  0.12500000000E+03  0.00000000000E+00 0.  1.
         11   -1    0    0    0    0 -0.00000000000E+00 -0.00000000000E+00 -0.12500000000E+03  0.12500000000E+03  0.00000000000E+00 0. -1.
         24    1    1    2    0    0 -0.23990836444E+01  0.16105417234E+02  0.94300816428E+02  0.12500000000E+03  0.80419002446E+02 0.  1.
        -24    1    1    2    0    0  0.23990836444E+01 -0.16105417234E+02 -0.94300816428E+02  0.12500000000E+03  0.80419002446E+02 0.  0.
</event>
<event>
 4    1  0.1599584E-001  0.1250000E+03  0.7546771E-02  0.1126479E+00
        -11   -1    0    0    0    0  0.00000000000E+00  0.00000000000E+00  0.12500000000E+03  0.12500000000E+03  0.00000000000E+00 0.  1.
         11   -1    0    0    0    0 -0.00000000000E+00 -0.00000000000E+00 -0.12500000000E+03  0.12500000000E+03  0.00000000000E+00 0. -1.
         24    1    1    2    0    0 -0.11207679289E+02  0.26069056602E+02  0.91392429984E+02  0.12500000000E+03  0.80419002446E+02 0.  0.
        -24    1    1    2    0    0  0.11207679289E+02 -0.26069056602E+02 -0.91392429984E+02  0.12500000000E+03  0.80419002446E+02 0. -1.
</event>
<event>
 4    1  0.1599584E-001  0.1250000E+03  0.7546771E-02  0.1126479E+00
        -11   -1    0    0    0    0  0.00000000000E+00  0.00000000000E+00  0.12500000000E+03  0.12500000000E+03  0.00000000000E+00 0.  1.
         11   -1    0    0    0    0 -0.00000000000E+00 -0.00000000000E+00 -0.12500000000E+03  0.12500000000E+03  0.00000000000E+00 0. -1.
         24    1    1    2    0    0  0.92279533681E+01  0.41966908276E+02  0.85506768925E+02  0.12500000000E+03  0.80419002446E+02 0.  1.
        -24    1    1    2    0    0 -0.92279533681E+01 -0.41966908276E+02 -0.85506768925E+02  0.12500000000E+03  0.80419002446E+02 0. -1.
</event>
<event>
 4    1  0.1599584E-001  0.1250000E+03  0.7546771E-02  0.1126479E+00
        -11   -1    0    0    0    0  0.00000000000E+00  0.00000000000E+00  0.12500000000E+03  0.12500000000E+03  0.00000000000E+00 0.  1.
         11   -1    0    0    0    0 -0.00000000000E+00 -0.00000000000E+00 -0.12500000000E+03  0.12500000000E+03  0.00000000000E+00 0. -1.
         24    1    1    2    0    0  0.14359735216E+02  0.19213810622E+01  0.94593289112E+02  0.12500000000E+03  0.80419002446E+02 0.  1.
        -24    1    1    2    0    0 -0.14359735216E+02 -0.19213810622E+01 -0.94593289112E+02  0.12500000000E+03  0.80419002446E+02 0. -1.
</event>
<event>
 4    1  0.1599584E-001  0.1250000E+03  0.7546771E-02  0.1126479E+00
        -11   -1    0    0    0    0  0.00000000000E+00  0.00000000000E+00  0.12500000000E+03  0.12500000000E+03  0.00000000000E+00 0.  1.
         11   -1    0    0    0    0 -0.00000000000E+00 -0.00000000000E+00 -0.12500000000E+03  0.12500000000E+03  0.00000000000E+00 0. -1.
         24    1    1    2    0    0  0.25139751326E+02  0.91044704260E+02 -0.15383067803E+02  0.12500000000E+03  0.80419002446E+02 0.  1.
        -24    1    1    2    0    0 -0.25139751326E+02 -0.91044704260E+02  0.15383067803E+02  0.12500000000E+03  0.80419002446E+02 0. -1.
</event>
<event>
 4    1  0.1599584E-001  0.1250000E+03  0.7546771E-02  0.1126479E+00
        -11   -1    0    0    0    0  0.00000000000E+00  0.00000000000E+00  0.12500000000E+03  0.12500000000E+03  0.00000000000E+00 0.  1.
         11   -1    0    0    0    0 -0.00000000000E+00 -0.00000000000E+00 -0.12500000000E+03  0.12500000000E+03  0.00000000000E+00 0. -1.
         24    1    1    2    0    0  0.56900890673E+02 -0.26818126097E+02  0.72116993829E+02  0.12500000000E+03  0.80419002446E+02 0.  1.
        -24    1    1    2    0    0 -0.56900890673E+02  0.26818126097E+02 -0.72116993829E+02  0.12500000000E+03  0.80419002446E+02 0. -1.
</event>
<event>
 4    1  0.1599584E-001  0.1250000E+03  0.7546771E-02  0.1126479E+00
        -11   -1    0    0    0    0  0.00000000000E+00  0.00000000000E+00  0.12500000000E+03  0.12500000000E+03  0.00000000000E+00 0.  1.
         11   -1    0    0    0    0 -0.00000000000E+00 -0.00000000000E+00 -0.12500000000E+03  0.12500000000E+03  0.00000000000E+00 0. -1.
         24    1    1    2    0    0  0.21158857809E+02 -0.69485524045E+02  0.62304484029E+02  0.12500000000E+03  0.80419002446E+02 0.  1.
        -24    1    1    2    0    0 -0.21158857809E+02  0.69485524045E+02 -0.62304484029E+02  0.12500000000E+03  0.80419002446E+02 0. -1.
</event>
<event>
 4    1  0.1599584E-001  0.1250000E+03  0.7546771E-02  0.1126479E+00
        -11   -1    0    0    0    0  0.00000000000E+00  0.00000000000E+00  0.12500000000E+03  0.12500000000E+03  0.00000000000E+00 0.  1.
         11   -1    0    0    0    0 -0.00000000000E+00 -0.00000000000E+00 -0.12500000000E+03  0.12500000000E+03  0.00000000000E+00 0. -1.
         24    1    1    2    0    0  0.90641858859E+01  0.92759675456E+02 -0.21708689255E+02  0.12500000000E+03  0.80419002446E+02 0.  0.
        -24    1    1    2    0    0 -0.90641858859E+01 -0.92759675456E+02  0.21708689255E+02  0.12500000000E+03  0.80419002446E+02 0.  0.
</event>
<event>
 4    1  0.1599584E-001  0.1250000E+03  0.7546771E-02  0.1126479E+00
        -11   -1    0    0    0    0  0.00000000000E+00  0.00000000000E+00  0.12500000000E+03  0.12500000000E+03  0.00000000000E+00 0.  1.
         11   -1    0    0    0    0 -0.00000000000E+00 -0.00000000000E+00 -0.12500000000E+03  0.12500000000E+03  0.00000000000E+00 0. -1.
         24    1    1    2    0    0  0.47286348082E+02 -0.76598897894E+02  0.32471436249E+02  0.12500000000E+03  0.80419002446E+02 0.  1.
        -24    1    1    2    0    0 -0.47286348082E+02  0.76598897894E+02 -0.32471436249E+02  0.12500000000E+03  0.80419002446E+02 0.  0.
</event>
<event>
 4    1  0.1599584E-001  0.1250000E+03  0.7546771E-02  0.1126479E+00
        -11   -1    0    0    0    0  0.00000000000E+00  0.00000000000E+00  0.12500000000E+03  0.12500000000E+03  0.00000000000E+00 0.  1.
         11   -1    0    0    0    0 -0.00000000000E+00 -0.00000000000E+00 -0.12500000000E+03  0.12500000000E+03  0.00000000000E+00 0. -1.
         24    1    1    2    0    0  0.57575383861E+02 -0.45387279978E+02  0.61504910659E+02  0.12500000000E+03  0.80419002446E+02 0.  1.
        -24    1    1    2    0    0 -0.57575383861E+02  0.45387279978E+02 -0.61504910659E+02  0.12500000000E+03  0.80419002446E+02 0. -1.
</event>
<event>
 4    1  0.1599584E-001  0.1250000E+03  0.7546771E-02  0.1126479E+00
        -11   -1    0    0    0    0  0.00000000000E+00  0.00000000000E+00  0.12500000000E+03  0.12500000000E+03  0.00000000000E+00 0.  1.
         11   -1    0    0    0    0 -0.00000000000E+00 -0.00000000000E+00 -0.12500000000E+03  0.12500000000E+03  0.00000000000E+00 0. -1.
         24    1    1    2    0    0  0.15206865020E+02  0.69623288061E+02  0.63868091106E+02  0.12500000000E+03  0.80419002446E+02 0.  0.
        -24    1    1    2    0    0 -0.15206865020E+02 -0.69623288061E+02 -0.63868091106E+02  0.12500000000E+03  0.80419002446E+02 0. -1.
</event>
<event>
 4    1  0.1599584E-001  0.1250000E+03  0.7546771E-02  0.1126479E+00
        -11   -1    0    0    0    0  0.00000000000E+00  0.00000000000E+00  0.12500000000E+03  0.12500000000E+03  0.00000000000E+00 0.  1.
         11   -1    0    0    0    0 -0.00000000000E+00 -0.00000000000E+00 -0.12500000000E+03  0.12500000000E+03  0.00000000000E+00 0. -1.
         24    1    1    2    0    0 -0.24219118969E+02  0.71489272015E+01  0.92304448224E+02  0.12500000000E+03  0.80419002446E+02 0.  0.
        -24    1    1    2    0    0  0.24219118969E+02 -0.71489272015E+01 -0.92304448224E+02  0.12500000000E+03  0.80419002446E+02 0. -1.
</event>
<event>
 4    1  0.1599584E-001  0.1250000E+03  0.7546771E-02  0.1126479E+00
        -11   -1    0    0    0    0  0.00000000000E+00  0.00000000000E+00  0.12500000000E+03  0.12500000000E+03  0.00000000000E+00 0.  1.
         11   -1    0    0    0    0 -0.00000000000E+00 -0.00000000000E+00 -0.12500000000E+03  0.12500000000E+03  0.00000000000E+00 0. -1.
         24    1    1    2    0    0  0.30580670899E+01 -0.60014669796E+02  0.74475980561E+02  0.12500000000E+03  0.80419002446E+02 0. -1.
        -24    1    1    2    0    0 -0.30580670899E+01  0.60014669796E+02 -0.74475980561E+02  0.12500000000E+03  0.80419002446E+02 0. -1.
</event>
<event>
 4    1  0.1599584E-001  0.1250000E+03  0.7546771E-02  0.1126479E+00
        -11   -1    0    0    0    0  0.00000000000E+00  0.00000000000E+00  0.12500000000E+03  0.12500000000E+03  0.00000000000E+00 0.  1.
         11   -1    0    0    0    0 -0.00000000000E+00 -0.00000000000E+00 -0.12500000000E+03  0.12500000000E+03  0.00000000000E+00 0. -1.
         24    1    1    2    0    0 -0.25180888383E+02  0.45197620937E+01  0.92213223870E+02  0.12500000000E+03  0.80419002446E+02 0.  1.
        -24    1    1    2    0    0  0.25180888383E+02 -0.45197620937E+01 -0.92213223870E+02  0.12500000000E+03  0.80419002446E+02 0.  0.
</event>
<event>
 4    1  0.1599584E-001  0.1250000E+03  0.7546771E-02  0.1126479E+00
        -11   -1    0    0    0    0  0.00000000000E+00  0.00000000000E+00  0.12500000000E+03  0.12500000000E+03  0.00000000000E+00 0.  1.
         11   -1    0    0    0    0 -0.00000000000E+00 -0.00000000000E+00 -0.12500000000E+03  0.12500000000E+03  0.00000000000E+00 0. -1.
         24    1    1    2    0    0 -0.27212346301E+02  0.19148335786E+02  0.89725211011E+02  0.12500000000E+03  0.80419002446E+02 0.  0.
        -24    1    1    2    0    0  0.27212346301E+02 -0.19148335786E+02 -0.89725211011E+02  0.12500000000E+03  0.80419002446E+02 0.  0.
</event>
<event>
 4    1  0.1599584E-001  0.1250000E+03  0.7546771E-02  0.1126479E+00
        -11   -1    0    0    0    0  0.00000000000E+00  0.00000000000E+00  0.12500000000E+03  0.12500000000E+03  0.00000000000E+00 0.  1.
         11   -1    0    0    0    0 -0.00000000000E+00 -0.00000000000E+00 -0.12500000000E+03  0.12500000000E+03  0.00000000000E+00 0. -1.
         24    1    1    2    0    0 -0.70608120743E+02 -0.38470032913E+02  0.51887704695E+02  0.12500000000E+03  0.80419002446E+02 0.  1.
        -24    1    1    2    0    0  0.70608120743E+02  0.38470032913E+02 -0.51887704695E+02  0.12500000000E+03  0.80419002446E+02 0. -1.
</event>
<event>
 4    1  0.1599584E-001  0.1250000E+03  0.7546771E-02  0.1126479E+00
        -11   -1    0    0    0    0  0.00000000000E+00  0.00000000000E+00  0.12500000000E+03  0.12500000000E+03  0.00000000000E+00 0.  1.
         11   -1    0    0    0    0 -0.00000000000E+00 -0.00000000000E+00 -0.12500000000E+03  0.12500000000E+03  0.00000000000E+00 0. -1.
         24    1    1    2    0    0 -0.80462072543E+00  0.98235843839E+01  0.95187361666E+02  0.12500000000E+03  0.80419002446E+02 0.  1.
        -24    1    1    2    0    0  0.80462072543E+00 -0.98235843839E+01 -0.95187361666E+02  0.12500000000E+03  0.80419002446E+02 0. -1.
</event>
<event>
 4    1  0.1599584E-001  0.1250000E+03  0.7546771E-02  0.1126479E+00
        -11   -1    0    0    0    0  0.00000000000E+00  0.00000000000E+00  0.12500000000E+03  0.12500000000E+03  0.00000000000E+00 0.  1.
         11   -1    0    0    0    0 -0.00000000000E+00 -0.00000000000E+00 -0.12500000000E+03  0.12500000000E+03  0.00000000000E+00 0. -1.
         24    1    1    2    0    0  0.43501549585E+02 -0.76963150206E+01  0.84889139261E+02  0.12500000000E+03  0.80419002446E+02 0.  1.
        -24    1    1    2    0    0 -0.43501549585E+02  0.76963150206E+01 -0.84889139261E+02  0.12500000000E+03  0.80419002446E+02 0. -1.
</event>
<event>
 4    1  0.1599584E-001  0.1250000E+03  0.7546771E-02  0.1126479E+00
        -11   -1    0    0    0    0  0.00000000000E+00  0.00000000000E+00  0.12500000000E+03  0.12500000000E+03  0.00000000000E+00 0.  1.
         11   -1    0    0    0    0 -0.00000000000E+00 -0.00000000000E+00 -0.12500000000E+03  0.12500000000E+03  0.00000000000E+00 0. -1.
         24    1    1    2    0    0 -0.54420313430E+01  0.83317163689E+01  0.95177470248E+02  0.12500000000E+03  0.80419002446E+02 0.  1.
        -24    1    1    2    0    0  0.54420313430E+01 -0.83317163689E+01 -0.95177470248E+02  0.12500000000E+03  0.80419002446E+02 0.  0.
</event>
<event>
 4    1  0.1599584E-001  0.1250000E+03  0.7546771E-02  0.1126479E+00
        -11   -1    0    0    0    0  0.00000000000E+00  0.00000000000E+00  0.12500000000E+03  0.12500000000E+03  0.00000000000E+00 0.  1.
         11   -1    0    0    0    0 -0.00000000000E+00 -0.00000000000E+00 -0.12500000000E+03  0.12500000000E+03  0.00000000000E+00 0. -1.
         24    1    1    2    0    0  0.20349292239E+02  0.79719603049E+02  0.48872029227E+02  0.12500000000E+03  0.80419002446E+02 0.  1.
        -24    1    1    2    0    0 -0.20349292239E+02 -0.79719603049E+02 -0.48872029227E+02  0.12500000000E+03  0.80419002446E+02 0. -1.
</event>
<event>
 4    1  0.1599584E-001  0.1250000E+03  0.7546771E-02  0.1126479E+00
        -11   -1    0    0    0    0  0.00000000000E+00  0.00000000000E+00  0.12500000000E+03  0.12500000000E+03  0.00000000000E+00 0.  1.
         11   -1    0    0    0    0 -0.00000000000E+00 -0.00000000000E+00 -0.12500000000E+03  0.12500000000E+03  0.00000000000E+00 0. -1.
         24    1    1    2    0    0  0.36462621876E+02 -0.52341975570E+02  0.71334275387E+02  0.12500000000E+03  0.80419002446E+02 0.  1.
        -24    1    1    2    0    0 -0.36462621876E+02  0.52341975570E+02 -0.71334275387E+02  0.12500000000E+03  0.80419002446E+02 0. -1.
</event>
<event>
 4    1  0.1599584E-001  0.1250000E+03  0.7546771E-02  0.1126479E+00
        -11   -1    0    0    0    0  0.00000000000E+00  0.00000000000E+00  0.12500000000E+03  0.12500000000E+03  0.00000000000E+00 0.  1.
         11   -1    0    0    0    0 -0.00000000000E+00 -0.00000000000E+00 -0.12500000000E+03  0.12500000000E+03  0.00000000000E+00 0. -1.
         24    1    1    2    0    0 -0.52533747303E+02  0.35466303294E+02  0.71694705317E+02  0.12500000000E+03  0.80419002446E+02 0.  1.
        -24    1    1    2    0    0  0.52533747303E+02 -0.35466303294E+02 -0.71694705317E+02  0.12500000000E+03  0.80419002446E+02 0. -1.
</event>
<event>
 4    1  0.1599584E-001  0.1250000E+03  0.7546771E-02  0.1126479E+00
        -11   -1    0    0    0    0  0.00000000000E+00  0.00000000000E+00  0.12500000000E+03  0.12500000000E+03  0.00000000000E+00 0.  1.
         11   -1    0    0    0    0 -0.00000000000E+00 -0.00000000000E+00 -0.12500000000E+03  0.12500000000E+03  0.00000000000E+00 0. -1.
         24    1    1    2    0    0 -0.53872810123E+01  0.31120166522E+02  0.90334359380E+02  0.12500000000E+03  0.80419002446E+02 0.  1.
        -24    1    1    2    0    0  0.53872810123E+01 -0.31120166522E+02 -0.90334359380E+02  0.12500000000E+03  0.80419002446E+02 0. -1.
</event>
<event>
 4    1  0.1599584E-001  0.1250000E+03  0.7546771E-02  0.1126479E+00
        -11   -1    0    0    0    0  0.00000000000E+00  0.00000000000E+00  0.12500000000E+03  0.12500000000E+03  0.00000000000E+00 0.  1.
         11   -1    0    0    0    0 -0.00000000000E+00 -0.00000000000E+00 -0.12500000000E+03  0.12500000000E+03  0.00000000000E+00 0. -1.
         24    1    1    2    0    0  0.56994112738E+02 -0.68103447604E+02 -0.35656354038E+02  0.12500000000E+03  0.80419002446E+02 0. -1.
        -24    1    1    2    0    0 -0.56994112738E+02  0.68103447604E+02  0.35656354038E+02  0.12500000000E+03  0.80419002446E+02 0.  1.
</event>
<event>
 4    1  0.1599584E-001  0.1250000E+03  0.7546771E-02  0.1126479E+00
        -11   -1    0    0    0    0  0.00000000000E+00  0.00000000000E+00  0.12500000000E+03  0.12500000000E+03  0.00000000000E+00 0.  1.
         11   -1    0    0    0    0 -0.00000000000E+00 -0.00000000000E+00 -0.12500000000E+03  0.12500000000E+03  0.00000000000E+00 0. -1.
         24    1    1    2    0    0  0.31126091428E+02 -0.63437796497E+02  0.64533684643E+02  0.12500000000E+03  0.80419002446E+02 0.  1.
        -24    1    1    2    0    0 -0.31126091428E+02  0.63437796497E+02 -0.64533684643E+02  0.12500000000E+03  0.80419002446E+02 0. -1.
</event>
<event>
 4    1  0.1599584E-001  0.1250000E+03  0.7546771E-02  0.1126479E+00
        -11   -1    0    0    0    0  0.00000000000E+00  0.00000000000E+00  0.12500000000E+03  0.12500000000E+03  0.00000000000E+00 0.  1.
         11   -1    0    0    0    0 -0.00000000000E+00 -0.00000000000E+00 -0.12500000000E+03  0.12500000000E+03  0.00000000000E+00 0. -1.
         24    1    1    2    0    0  0.39654490123E+02  0.64867456380E+02  0.58116422477E+02  0.12500000000E+03  0.80419002446E+02 0.  1.
        -24    1    1    2    0    0 -0.39654490123E+02 -0.64867456380E+02 -0.58116422477E+02  0.12500000000E+03  0.80419002446E+02 0. -1.
</event>
<event>
 4    1  0.1599584E-001  0.1250000E+03  0.7546771E-02  0.1126479E+00
        -11   -1    0    0    0    0  0.00000000000E+00  0.00000000000E+00  0.12500000000E+03  0.12500000000E+03  0.00000000000E+00 0.  1.
         11   -1    0    0    0    0 -0.00000000000E+00 -0.00000000000E+00 -0.12500000000E+03  0.12500000000E+03  0.00000000000E+00 0. -1.
         24    1    1    2    0    0 -0.33880012741E+02  0.61868954757E+01  0.89284103326E+02  0.12500000000E+03  0.80419002446E+02 0.  1.
        -24    1    1    2    0    0  0.33880012741E+02 -0.61868954757E+01 -0.89284103326E+02  0.12500000000E+03  0.80419002446E+02 0. -1.
</event>
<event>
 4    1  0.1599584E-001  0.1250000E+03  0.7546771E-02  0.1126479E+00
        -11   -1    0    0    0    0  0.00000000000E+00  0.00000000000E+00  0.12500000000E+03  0.12500000000E+03  0.00000000000E+00 0.  1.
         11   -1    0    0    0    0 -0.00000000000E+00 -0.00000000000E+00 -0.12500000000E+03  0.12500000000E+03  0.00000000000E+00 0. -1.
         24    1    1    2    0    0 -0.13320546662E+02 -0.20520160381E+02  0.92516323426E+02  0.12500000000E+03  0.80419002446E+02 0.  1.
        -24    1    1    2    0    0  0.13320546662E+02  0.20520160381E+02 -0.92516323426E+02  0.12500000000E+03  0.80419002446E+02 0. -1.
</event>
<event>
 4    1  0.1599584E-001  0.1250000E+03  0.7546771E-02  0.1126479E+00
        -11   -1    0    0    0    0  0.00000000000E+00  0.00000000000E+00  0.12500000000E+03  0.12500000000E+03  0.00000000000E+00 0.  1.
         11   -1    0    0    0    0 -0.00000000000E+00 -0.00000000000E+00 -0.12500000000E+03  0.12500000000E+03  0.00000000000E+00 0. -1.
         24    1    1    2    0    0  0.36737225518E+02  0.11132408484E+02  0.87659738696E+02  0.12500000000E+03  0.80419002446E+02 0.  1.
        -24    1    1    2    0    0 -0.36737225518E+02 -0.11132408484E+02 -0.87659738696E+02  0.12500000000E+03  0.80419002446E+02 0. -1.
</event>
<event>
 4    1  0.1599584E-001  0.1250000E+03  0.7546771E-02  0.1126479E+00
        -11   -1    0    0    0    0  0.00000000000E+00  0.00000000000E+00  0.12500000000E+03  0.12500000000E+03  0.00000000000E+00 0.  1.
         11   -1    0    0    0    0 -0.00000000000E+00 -0.00000000000E+00 -0.12500000000E+03  0.12500000000E+03  0.00000000000E+00 0. -1.
         24    1    1    2    0    0  0.52403528120E+02 -0.30666223327E+02  0.73967810790E+02  0.12500000000E+03  0.80419002446E+02 0.  1.
        -24    1    1    2    0    0 -0.52403528120E+02  0.30666223327E+02 -0.73967810790E+02  0.12500000000E+03  0.80419002446E+02 0. -1.
</event>
<event>
 4    1  0.1599584E-001  0.1250000E+03  0.7546771E-02  0.1126479E+00
        -11   -1    0    0    0    0  0.00000000000E+00  0.00000000000E+00  0.12500000000E+03  0.12500000000E+03  0.00000000000E+00 0.  1.
         11   -1    0    0    0    0 -0.00000000000E+00 -0.00000000000E+00 -0.12500000000E+03  0.12500000000E+03  0.00000000000E+00 0. -1.
         24    1    1    2    0    0  0.53914828618E+02 -0.12230192392E-01  0.79063108661E+02  0.12500000000E+03  0.80419002446E+02 0.  1.
        -24    1    1    2    0    0 -0.53914828618E+02  0.12230192392E-01 -0.79063108661E+02  0.12500000000E+03  0.80419002446E+02 0. -1.
</event>
<event>
 4    1  0.1599584E-001  0.1250000E+03  0.7546771E-02  0.1126479E+00
        -11   -1    0    0    0    0  0.00000000000E+00  0.00000000000E+00  0.12500000000E+03  0.12500000000E+03  0.00000000000E+00 0.  1.
         11   -1    0    0    0    0 -0.00000000000E+00 -0.00000000000E+00 -0.12500000000E+03  0.12500000000E+03  0.00000000000E+00 0. -1.
         24    1    1    2    0    0  0.39742679879E+02 -0.78671454347E+02  0.37270708506E+02  0.12500000000E+03  0.80419002446E+02 0.  1.
        -24    1    1    2    0    0 -0.39742679879E+02  0.78671454347E+02 -0.37270708506E+02  0.12500000000E+03  0.80419002446E+02 0. -1.
</event>
<event>
 4    1  0.1599584E-001  0.1250000E+03  0.7546771E-02  0.1126479E+00
        -11   -1    0    0    0    0  0.00000000000E+00  0.00000000000E+00  0.12500000000E+03  0.12500000000E+03  0.00000000000E+00 0.  1.
         11   -1    0    0    0    0 -0.00000000000E+00 -0.00000000000E+00 -0.12500000000E+03  0.12500000000E+03  0.00000000000E+00 0. -1.
         24    1    1    2    0    0  0.89100765848E+01 -0.93618926130E+02  0.17716976356E+02  0.12500000000E+03  0.80419002446E+02 0. -1.
        -24    1    1    2    0    0 -0.89100765848E+01  0.93618926130E+02 -0.17716976356E+02  0.12500000000E+03  0.80419002446E+02 0.  1.
</event>
<event>
 4    1  0.1599584E-001  0.1250000E+03  0.7546771E-02  0.1126479E+00
        -11   -1    0    0    0    0  0.00000000000E+00  0.00000000000E+00  0.12500000000E+03  0.12500000000E+03  0.00000000000E+00 0.  1.
         11   -1    0    0    0    0 -0.00000000000E+00 -0.00000000000E+00 -0.12500000000E+03  0.12500000000E+03  0.00000000000E+00 0. -1.
         24    1    1    2    0    0 -0.25576320826E+02  0.34479374508E+02  0.85526654279E+02  0.12500000000E+03  0.80419002446E+02 0.  1.
        -24    1    1    2    0    0  0.25576320826E+02 -0.34479374508E+02 -0.85526654279E+02  0.12500000000E+03  0.80419002446E+02 0. -1.
</event>
<event>
 4    1  0.1599584E-001  0.1250000E+03  0.7546771E-02  0.1126479E+00
        -11   -1    0    0    0    0  0.00000000000E+00  0.00000000000E+00  0.12500000000E+03  0.12500000000E+03  0.00000000000E+00 0.  1.
         11   -1    0    0    0    0 -0.00000000000E+00 -0.00000000000E+00 -0.12500000000E+03  0.12500000000E+03  0.00000000000E+00 0. -1.
         24    1    1    2    0    0 -0.19849099101E+02 -0.29372226826E+02  0.88887960950E+02  0.12500000000E+03  0.80419002446E+02 0.  1.
        -24    1    1    2    0    0  0.19849099101E+02  0.29372226826E+02 -0.88887960950E+02  0.12500000000E+03  0.80419002446E+02 0. -1.
</event>
<event>
 4    1  0.1599584E-001  0.1250000E+03  0.7546771E-02  0.1126479E+00
        -11   -1    0    0    0    0  0.00000000000E+00  0.00000000000E+00  0.12500000000E+03  0.12500000000E+03  0.00000000000E+00 0.  1.
         11   -1    0    0    0    0 -0.00000000000E+00 -0.00000000000E+00 -0.12500000000E+03  0.12500000000E+03  0.00000000000E+00 0. -1.
         24    1    1    2    0    0  0.75884328701E+02 -0.21722065574E+02  0.54106418940E+02  0.12500000000E+03  0.80419002446E+02 0.  0.
        -24    1    1    2    0    0 -0.75884328701E+02  0.21722065574E+02 -0.54106418940E+02  0.12500000000E+03  0.80419002446E+02 0. -1.
</event>
<event>
 4    1  0.1599584E-001  0.1250000E+03  0.7546771E-02  0.1126479E+00
        -11   -1    0    0    0    0  0.00000000000E+00  0.00000000000E+00  0.12500000000E+03  0.12500000000E+03  0.00000000000E+00 0.  1.
         11   -1    0    0    0    0 -0.00000000000E+00 -0.00000000000E+00 -0.12500000000E+03  0.12500000000E+03  0.00000000000E+00 0. -1.
         24    1    1    2    0    0  0.41059405016E+02  0.66556201990E+02  0.55155972316E+02  0.12500000000E+03  0.80419002446E+02 0.  1.
        -24    1    1    2    0    0 -0.41059405016E+02 -0.66556201990E+02 -0.55155972316E+02  0.12500000000E+03  0.80419002446E+02 0. -1.
</event>
<event>
 4    1  0.1599584E-001  0.1250000E+03  0.7546771E-02  0.1126479E+00
        -11   -1    0    0    0    0  0.00000000000E+00  0.00000000000E+00  0.12500000000E+03  0.12500000000E+03  0.00000000000E+00 0.  1.
         11   -1    0    0    0    0 -0.00000000000E+00 -0.00000000000E+00 -0.12500000000E+03  0.12500000000E+03  0.00000000000E+00 0. -1.
         24    1    1    2    0    0 -0.38552103063E+02  0.53088349771E+01  0.87426172661E+02  0.12500000000E+03  0.80419002446E+02 0.  1.
        -24    1    1    2    0    0  0.38552103063E+02 -0.53088349771E+01 -0.87426172661E+02  0.12500000000E+03  0.80419002446E+02 0. -1.
</event>
<event>
 4    1  0.1599584E-001  0.1250000E+03  0.7546771E-02  0.1126479E+00
        -11   -1    0    0    0    0  0.00000000000E+00  0.00000000000E+00  0.12500000000E+03  0.12500000000E+03  0.00000000000E+00 0.  1.
         11   -1    0    0    0    0 -0.00000000000E+00 -0.00000000000E+00 -0.12500000000E+03  0.12500000000E+03  0.00000000000E+00 0. -1.
         24    1    1    2    0    0  0.13470884147E+02 -0.97348399394E+01  0.94241987549E+02  0.12500000000E+03  0.80419002446E+02 0.  1.
        -24    1    1    2    0    0 -0.13470884147E+02  0.97348399394E+01 -0.94241987549E+02  0.12500000000E+03  0.80419002446E+02 0. -1.
</event>
<event>
 4    1  0.1599584E-001  0.1250000E+03  0.7546771E-02  0.1126479E+00
        -11   -1    0    0    0    0  0.00000000000E+00  0.00000000000E+00  0.12500000000E+03  0.12500000000E+03  0.00000000000E+00 0.  1.
         11   -1    0    0    0    0 -0.00000000000E+00 -0.00000000000E+00 -0.12500000000E+03  0.12500000000E+03  0.00000000000E+00 0. -1.
         24    1    1    2    0    0 -0.47713041889E+02  0.52345477054E+02  0.64352161668E+02  0.12500000000E+03  0.80419002446E+02 0.  1.
        -24    1    1    2    0    0  0.47713041889E+02 -0.52345477054E+02 -0.64352161668E+02  0.12500000000E+03  0.80419002446E+02 0. -1.
</event>
<event>
 4    1  0.1599584E-001  0.1250000E+03  0.7546771E-02  0.1126479E+00
        -11   -1    0    0    0    0  0.00000000000E+00  0.00000000000E+00  0.12500000000E+03  0.12500000000E+03  0.00000000000E+00 0.  1.
         11   -1    0    0    0    0 -0.00000000000E+00 -0.00000000000E+00 -0.12500000000E+03  0.12500000000E+03  0.00000000000E+00 0. -1.
         24    1    1    2    0    0 -0.36079021191E+02 -0.36119705889E+02  0.80941059556E+02  0.12500000000E+03  0.80419002446E+02 0.  1.
        -24    1    1    2    0    0  0.36079021191E+02  0.36119705889E+02 -0.80941059556E+02  0.12500000000E+03  0.80419002446E+02 0. -1.
</event>
<event>
 4    1  0.1599584E-001  0.1250000E+03  0.7546771E-02  0.1126479E+00
        -11   -1    0    0    0    0  0.00000000000E+00  0.00000000000E+00  0.12500000000E+03  0.12500000000E+03  0.00000000000E+00 0.  1.
         11   -1    0    0    0    0 -0.00000000000E+00 -0.00000000000E+00 -0.12500000000E+03  0.12500000000E+03  0.00000000000E+00 0. -1.
         24    1    1    2    0    0 -0.22358571327E+02  0.79543427555E+02  0.48277546196E+02  0.12500000000E+03  0.80419002446E+02 0.  1.
        -24    1    1    2    0    0  0.22358571327E+02 -0.79543427555E+02 -0.48277546196E+02  0.12500000000E+03  0.80419002446E+02 0. -1.
</event>
<event>
 4    1  0.1599584E-001  0.1250000E+03  0.7546771E-02  0.1126479E+00
        -11   -1    0    0    0    0  0.00000000000E+00  0.00000000000E+00  0.12500000000E+03  0.12500000000E+03  0.00000000000E+00 0.  1.
         11   -1    0    0    0    0 -0.00000000000E+00 -0.00000000000E+00 -0.12500000000E+03  0.12500000000E+03  0.00000000000E+00 0. -1.
         24    1    1    2    0    0 -0.48585149321E+02  0.16029249613E+02  0.80872309649E+02  0.12500000000E+03  0.80419002446E+02 0.  1.
        -24    1    1    2    0    0  0.48585149321E+02 -0.16029249613E+02 -0.80872309649E+02  0.12500000000E+03  0.80419002446E+02 0. -1.
</event>
<event>
 4    1  0.1599584E-001  0.1250000E+03  0.7546771E-02  0.1126479E+00
        -11   -1    0    0    0    0  0.00000000000E+00  0.00000000000E+00  0.12500000000E+03  0.12500000000E+03  0.00000000000E+00 0.  1.
         11   -1    0    0    0    0 -0.00000000000E+00 -0.00000000000E+00 -0.12500000000E+03  0.12500000000E+03  0.00000000000E+00 0. -1.
         24    1    1    2    0    0  0.26130199221E+02  0.43111201346E+02  0.81341385855E+02  0.12500000000E+03  0.80419002446E+02 0.  1.
        -24    1    1    2    0    0 -0.26130199221E+02 -0.43111201346E+02 -0.81341385855E+02  0.12500000000E+03  0.80419002446E+02 0. -1.
</event>
<event>
 4    1  0.1599584E-001  0.1250000E+03  0.7546771E-02  0.1126479E+00
        -11   -1    0    0    0    0  0.00000000000E+00  0.00000000000E+00  0.12500000000E+03  0.12500000000E+03  0.00000000000E+00 0.  1.
         11   -1    0    0    0    0 -0.00000000000E+00 -0.00000000000E+00 -0.12500000000E+03  0.12500000000E+03  0.00000000000E+00 0. -1.
         24    1    1    2    0    0  0.27351794305E+02  0.78312335148E+02  0.47716260935E+02  0.12500000000E+03  0.80419002446E+02 0.  1.
        -24    1    1    2    0    0 -0.27351794305E+02 -0.78312335148E+02 -0.47716260935E+02  0.12500000000E+03  0.80419002446E+02 0.  0.
</event>
<event>
 4    1  0.1599584E-001  0.1250000E+03  0.7546771E-02  0.1126479E+00
        -11   -1    0    0    0    0  0.00000000000E+00  0.00000000000E+00  0.12500000000E+03  0.12500000000E+03  0.00000000000E+00 0.  1.
         11   -1    0    0    0    0 -0.00000000000E+00 -0.00000000000E+00 -0.12500000000E+03  0.12500000000E+03  0.00000000000E+00 0. -1.
         24    1    1    2    0    0 -0.24149864456E+02  0.17478062003E+02  0.90934511826E+02  0.12500000000E+03  0.80419002446E+02 0.  1.
        -24    1    1    2    0    0  0.24149864456E+02 -0.17478062003E+02 -0.90934511826E+02  0.12500000000E+03  0.80419002446E+02 0. -1.
</event>
<event>
 4    1  0.1599584E-001  0.1250000E+03  0.7546771E-02  0.1126479E+00
        -11   -1    0    0    0    0  0.00000000000E+00  0.00000000000E+00  0.12500000000E+03  0.12500000000E+03  0.00000000000E+00 0.  1.
         11   -1    0    0    0    0 -0.00000000000E+00 -0.00000000000E+00 -0.12500000000E+03  0.12500000000E+03  0.00000000000E+00 0. -1.
         24    1    1    2    0    0 -0.51881307083E+02 -0.68336227919E+02  0.42382472496E+02  0.12500000000E+03  0.80419002446E+02 0.  1.
        -24    1    1    2    0    0  0.51881307083E+02  0.68336227919E+02 -0.42382472496E+02  0.12500000000E+03  0.80419002446E+02 0. -1.
</event>
<event>
 4    1  0.1599584E-001  0.1250000E+03  0.7546771E-02  0.1126479E+00
        -11   -1    0    0    0    0  0.00000000000E+00  0.00000000000E+00  0.12500000000E+03  0.12500000000E+03  0.00000000000E+00 0.  1.
         11   -1    0    0    0    0 -0.00000000000E+00 -0.00000000000E+00 -0.12500000000E+03  0.12500000000E+03  0.00000000000E+00 0. -1.
         24    1    1    2    0    0  0.33622018111E+02 -0.27003501163E+02  0.85429238957E+02  0.12500000000E+03  0.80419002446E+02 0.  1.
        -24    1    1    2    0    0 -0.33622018111E+02  0.27003501163E+02 -0.85429238957E+02  0.12500000000E+03  0.80419002446E+02 0. -1.
</event>
<event>
 4    1  0.1599584E-001  0.1250000E+03  0.7546771E-02  0.1126479E+00
        -11   -1    0    0    0    0  0.00000000000E+00  0.00000000000E+00  0.12500000000E+03  0.12500000000E+03  0.00000000000E+00 0.  1.
         11   -1    0    0    0    0 -0.00000000000E+00 -0.00000000000E+00 -0.12500000000E+03  0.12500000000E+03  0.00000000000E+00 0. -1.
         24    1    1    2    0    0  0.34811641274E+02 -0.56662532635E+02  0.68813451249E+02  0.12500000000E+03  0.80419002446E+02 0.  1.
        -24    1    1    2    0    0 -0.34811641274E+02  0.56662532635E+02 -0.68813451249E+02  0.12500000000E+03  0.80419002446E+02 0. -1.
</event>
<event>
 4    1  0.1599584E-001  0.1250000E+03  0.7546771E-02  0.1126479E+00
        -11   -1    0    0    0    0  0.00000000000E+00  0.00000000000E+00  0.12500000000E+03  0.12500000000E+03  0.00000000000E+00 0.  1.
         11   -1    0    0    0    0 -0.00000000000E+00 -0.00000000000E+00 -0.12500000000E+03  0.12500000000E+03  0.00000000000E+00 0. -1.
         24    1    1    2    0    0 -0.22900643094E+02 -0.58159271811E+01  0.92733594681E+02  0.12500000000E+03  0.80419002446E+02 0.  1.
        -24    1    1    2    0    0  0.22900643094E+02  0.58159271811E+01 -0.92733594681E+02  0.12500000000E+03  0.80419002446E+02 0. -1.
</event>
<event>
 4    1  0.1599584E-001  0.1250000E+03  0.7546771E-02  0.1126479E+00
        -11   -1    0    0    0    0  0.00000000000E+00  0.00000000000E+00  0.12500000000E+03  0.12500000000E+03  0.00000000000E+00 0.  1.
         11   -1    0    0    0    0 -0.00000000000E+00 -0.00000000000E+00 -0.12500000000E+03  0.12500000000E+03  0.00000000000E+00 0. -1.
         24    1    1    2    0    0  0.66308700443E+02  0.38492925623E+02  0.57264604846E+02  0.12500000000E+03  0.80419002446E+02 0.  0.
        -24    1    1    2    0    0 -0.66308700443E+02 -0.38492925623E+02 -0.57264604846E+02  0.12500000000E+03  0.80419002446E+02 0.  1.
</event>
<event>
 4    1  0.1599584E-001  0.1250000E+03  0.7546771E-02  0.1126479E+00
        -11   -1    0    0    0    0  0.00000000000E+00  0.00000000000E+00  0.12500000000E+03  0.12500000000E+03  0.00000000000E+00 0.  1.
         11   -1    0    0    0    0 -0.00000000000E+00 -0.00000000000E+00 -0.12500000000E+03  0.12500000000E+03  0.00000000000E+00 0. -1.
         24    1    1    2    0    0  0.53170356774E+01 -0.31561616452E+02  0.90185240168E+02  0.12500000000E+03  0.80419002446E+02 0.  1.
        -24    1    1    2    0    0 -0.53170356774E+01  0.31561616452E+02 -0.90185240168E+02  0.12500000000E+03  0.80419002446E+02 0. -1.
</event>
<event>
 4    1  0.1599584E-001  0.1250000E+03  0.7546771E-02  0.1126479E+00
        -11   -1    0    0    0    0  0.00000000000E+00  0.00000000000E+00  0.12500000000E+03  0.12500000000E+03  0.00000000000E+00 0.  1.
         11   -1    0    0    0    0 -0.00000000000E+00 -0.00000000000E+00 -0.12500000000E+03  0.12500000000E+03  0.00000000000E+00 0. -1.
         24    1    1    2    0    0  0.88410980402E+02 -0.32763100523E+02 -0.16366485084E+02  0.12500000000E+03  0.80419002446E+02 0. -1.
        -24    1    1    2    0    0 -0.88410980402E+02  0.32763100523E+02  0.16366485084E+02  0.12500000000E+03  0.80419002446E+02 0.  1.
</event>
<event>
 4    1  0.1599584E-001  0.1250000E+03  0.7546771E-02  0.1126479E+00
        -11   -1    0    0    0    0  0.00000000000E+00  0.00000000000E+00  0.12500000000E+03  0.12500000000E+03  0.00000000000E+00 0.  1.
         11   -1    0    0    0    0 -0.00000000000E+00 -0.00000000000E+00 -0.12500000000E+03  0.12500000000E+03  0.00000000000E+00 0. -1.
         24    1    1    2    0    0  0.33231694006E+02 -0.71575677168E+02  0.54132808878E+02  0.12500000000E+03  0.80419002446E+02 0.  1.
        -24    1    1    2    0    0 -0.33231694006E+02  0.71575677168E+02 -0.54132808878E+02  0.12500000000E+03  0.80419002446E+02 0. -1.
</event>
<event>
 4    1  0.1599584E-001  0.1250000E+03  0.7546771E-02  0.1126479E+00
        -11   -1    0    0    0    0  0.00000000000E+00  0.00000000000E+00  0.12500000000E+03  0.12500000000E+03  0.00000000000E+00 0.  1.
         11   -1    0    0    0    0 -0.00000000000E+00 -0.00000000000E+00 -0.12500000000E+03  0.12500000000E+03  0.00000000000E+00 0. -1.
         24    1    1    2    0    0 -0.91654611740E+02 -0.92719809710E+01  0.25908426454E+02  0.12500000000E+03  0.80419002446E+02 0.  1.
        -24    1    1    2    0    0  0.91654611740E+02  0.92719809710E+01 -0.25908426454E+02  0.12500000000E+03  0.80419002446E+02 0. -1.
</event>
<event>
 4    1  0.1599584E-001  0.1250000E+03  0.7546771E-02  0.1126479E+00
        -11   -1    0    0    0    0  0.00000000000E+00  0.00000000000E+00  0.12500000000E+03  0.12500000000E+03  0.00000000000E+00 0.  1.
         11   -1    0    0    0    0 -0.00000000000E+00 -0.00000000000E+00 -0.12500000000E+03  0.12500000000E+03  0.00000000000E+00 0. -1.
         24    1    1    2    0    0 -0.55103387929E+02 -0.37759565475E+01  0.78148210706E+02  0.12500000000E+03  0.80419002446E+02 0.  1.
        -24    1    1    2    0    0  0.55103387929E+02  0.37759565475E+01 -0.78148210706E+02  0.12500000000E+03  0.80419002446E+02 0. -1.
</event>
<event>
 4    1  0.1599584E-001  0.1250000E+03  0.7546771E-02  0.1126479E+00
        -11   -1    0    0    0    0  0.00000000000E+00  0.00000000000E+00  0.12500000000E+03  0.12500000000E+03  0.00000000000E+00 0.  1.
         11   -1    0    0    0    0 -0.00000000000E+00 -0.00000000000E+00 -0.12500000000E+03  0.12500000000E+03  0.00000000000E+00 0. -1.
         24    1    1    2    0    0 -0.38994658575E+02  0.48370373984E+02  0.72783978793E+02  0.12500000000E+03  0.80419002446E+02 0. -1.
        -24    1    1    2    0    0  0.38994658575E+02 -0.48370373984E+02 -0.72783978793E+02  0.12500000000E+03  0.80419002446E+02 0. -1.
</event>
<event>
 4    1  0.1599584E-001  0.1250000E+03  0.7546771E-02  0.1126479E+00
        -11   -1    0    0    0    0  0.00000000000E+00  0.00000000000E+00  0.12500000000E+03  0.12500000000E+03  0.00000000000E+00 0.  1.
         11   -1    0    0    0    0 -0.00000000000E+00 -0.00000000000E+00 -0.12500000000E+03  0.12500000000E+03  0.00000000000E+00 0. -1.
         24    1    1    2    0    0 -0.16906063761E+02 -0.14105442601E+01  0.94180568158E+02  0.12500000000E+03  0.80419002446E+02 0.  1.
        -24    1    1    2    0    0  0.16906063761E+02  0.14105442601E+01 -0.94180568158E+02  0.12500000000E+03  0.80419002446E+02 0.  0.
</event>
<event>
 4    1  0.1599584E-001  0.1250000E+03  0.7546771E-02  0.1126479E+00
        -11   -1    0    0    0    0  0.00000000000E+00  0.00000000000E+00  0.12500000000E+03  0.12500000000E+03  0.00000000000E+00 0.  1.
         11   -1    0    0    0    0 -0.00000000000E+00 -0.00000000000E+00 -0.12500000000E+03  0.12500000000E+03  0.00000000000E+00 0. -1.
         24    1    1    2    0    0  0.92597166169E+01  0.62729891809E+01  0.95040471908E+02  0.12500000000E+03  0.80419002446E+02 0.  1.
        -24    1    1    2    0    0 -0.92597166169E+01 -0.62729891809E+01 -0.95040471908E+02  0.12500000000E+03  0.80419002446E+02 0.  0.
</event>
<event>
 4    1  0.1599584E-001  0.1250000E+03  0.7546771E-02  0.1126479E+00
        -11   -1    0    0    0    0  0.00000000000E+00  0.00000000000E+00  0.12500000000E+03  0.12500000000E+03  0.00000000000E+00 0.  1.
         11   -1    0    0    0    0 -0.00000000000E+00 -0.00000000000E+00 -0.12500000000E+03  0.12500000000E+03  0.00000000000E+00 0. -1.
         24    1    1    2    0    0 -0.25155678500E+02  0.77387194933E+02  0.50360678563E+02  0.12500000000E+03  0.80419002446E+02 0. -1.
        -24    1    1    2    0    0  0.25155678500E+02 -0.77387194933E+02 -0.50360678563E+02  0.12500000000E+03  0.80419002446E+02 0.  1.
</event>
<event>
 4    1  0.1599584E-001  0.1250000E+03  0.7546771E-02  0.1126479E+00
        -11   -1    0    0    0    0  0.00000000000E+00  0.00000000000E+00  0.12500000000E+03  0.12500000000E+03  0.00000000000E+00 0.  1.
         11   -1    0    0    0    0 -0.00000000000E+00 -0.00000000000E+00 -0.12500000000E+03  0.12500000000E+03  0.00000000000E+00 0. -1.
         24    1    1    2    0    0  0.76124856800E+02 -0.26601870982E+02  0.51527960207E+02  0.12500000000E+03  0.80419002446E+02 0.  1.
        -24    1    1    2    0    0 -0.76124856800E+02  0.26601870982E+02 -0.51527960207E+02  0.12500000000E+03  0.80419002446E+02 0. -1.
</event>
<event>
 4    1  0.1599584E-001  0.1250000E+03  0.7546771E-02  0.1126479E+00
        -11   -1    0    0    0    0  0.00000000000E+00  0.00000000000E+00  0.12500000000E+03  0.12500000000E+03  0.00000000000E+00 0.  1.
         11   -1    0    0    0    0 -0.00000000000E+00 -0.00000000000E+00 -0.12500000000E+03  0.12500000000E+03  0.00000000000E+00 0. -1.
         24    1    1    2    0    0  0.24184262822E+02  0.57823697552E+01  0.92409251038E+02  0.12500000000E+03  0.80419002446E+02 0.  0.
        -24    1    1    2    0    0 -0.24184262822E+02 -0.57823697552E+01 -0.92409251038E+02  0.12500000000E+03  0.80419002446E+02 0.  0.
</event>
<event>
 4    1  0.1599584E-001  0.1250000E+03  0.7546771E-02  0.1126479E+00
        -11   -1    0    0    0    0  0.00000000000E+00  0.00000000000E+00  0.12500000000E+03  0.12500000000E+03  0.00000000000E+00 0.  1.
         11   -1    0    0    0    0 -0.00000000000E+00 -0.00000000000E+00 -0.12500000000E+03  0.12500000000E+03  0.00000000000E+00 0. -1.
         24    1    1    2    0    0  0.49152233190E+01  0.86286200898E+01  0.95179680293E+02  0.12500000000E+03  0.80419002446E+02 0.  1.
        -24    1    1    2    0    0 -0.49152233190E+01 -0.86286200898E+01 -0.95179680293E+02  0.12500000000E+03  0.80419002446E+02 0.  0.
</event>
<event>
 4    1  0.1599584E-001  0.1250000E+03  0.7546771E-02  0.1126479E+00
        -11   -1    0    0    0    0  0.00000000000E+00  0.00000000000E+00  0.12500000000E+03  0.12500000000E+03  0.00000000000E+00 0.  1.
         11   -1    0    0    0    0 -0.00000000000E+00 -0.00000000000E+00 -0.12500000000E+03  0.12500000000E+03  0.00000000000E+00 0. -1.
         24    1    1    2    0    0 -0.18990975769E+02 -0.24544526721E+01  0.93760879620E+02  0.12500000000E+03  0.80419002446E+02 0.  1.
        -24    1    1    2    0    0  0.18990975769E+02  0.24544526721E+01 -0.93760879620E+02  0.12500000000E+03  0.80419002446E+02 0. -1.
</event>
<event>
 4    1  0.1599584E-001  0.1250000E+03  0.7546771E-02  0.1126479E+00
        -11   -1    0    0    0    0  0.00000000000E+00  0.00000000000E+00  0.12500000000E+03  0.12500000000E+03  0.00000000000E+00 0.  1.
         11   -1    0    0    0    0 -0.00000000000E+00 -0.00000000000E+00 -0.12500000000E+03  0.12500000000E+03  0.00000000000E+00 0. -1.
         24    1    1    2    0    0 -0.34466565316E+02 -0.24532454130E+02  0.85837046870E+02  0.12500000000E+03  0.80419002446E+02 0.  1.
        -24    1    1    2    0    0  0.34466565316E+02  0.24532454130E+02 -0.85837046870E+02  0.12500000000E+03  0.80419002446E+02 0. -1.
</event>
<event>
 4    1  0.1599584E-001  0.1250000E+03  0.7546771E-02  0.1126479E+00
        -11   -1    0    0    0    0  0.00000000000E+00  0.00000000000E+00  0.12500000000E+03  0.12500000000E+03  0.00000000000E+00 0.  1.
         11   -1    0    0    0    0 -0.00000000000E+00 -0.00000000000E+00 -0.12500000000E+03  0.12500000000E+03  0.00000000000E+00 0. -1.
         24    1    1    2    0    0  0.90388331842E+00 -0.30742600093E+02  0.90619311298E+02  0.12500000000E+03  0.80419002446E+02 0.  0.
        -24    1    1    2    0    0 -0.90388331842E+00  0.30742600093E+02 -0.90619311298E+02  0.12500000000E+03  0.80419002446E+02 0.  0.
</event>
<event>
 4    1  0.1599584E-001  0.1250000E+03  0.7546771E-02  0.1126479E+00
        -11   -1    0    0    0    0  0.00000000000E+00  0.00000000000E+00  0.12500000000E+03  0.12500000000E+03  0.00000000000E+00 0.  1.
         11   -1    0    0    0    0 -0.00000000000E+00 -0.00000000000E+00 -0.12500000000E+03  0.12500000000E+03  0.00000000000E+00 0. -1.
         24    1    1    2    0    0 -0.56007079953E+02 -0.18183025012E+02  0.75434532160E+02  0.12500000000E+03  0.80419002446E+02 0. -1.
        -24    1    1    2    0    0  0.56007079953E+02  0.18183025012E+02 -0.75434532160E+02  0.12500000000E+03  0.80419002446E+02 0.  0.
</event>
<event>
 4    1  0.1599584E-001  0.1250000E+03  0.7546771E-02  0.1126479E+00
        -11   -1    0    0    0    0  0.00000000000E+00  0.00000000000E+00  0.12500000000E+03  0.12500000000E+03  0.00000000000E+00 0.  1.
         11   -1    0    0    0    0 -0.00000000000E+00 -0.00000000000E+00 -0.12500000000E+03  0.12500000000E+03  0.00000000000E+00 0. -1.
         24    1    1    2    0    0  0.33245591560E+02  0.79738585193E+02  0.41161544176E+02  0.12500000000E+03  0.80419002446E+02 0. -1.
        -24    1    1    2    0    0 -0.33245591560E+02 -0.79738585193E+02 -0.41161544176E+02  0.12500000000E+03  0.80419002446E+02 0.  1.
</event>
<event>
 4    1  0.1599584E-001  0.1250000E+03  0.7546771E-02  0.1126479E+00
        -11   -1    0    0    0    0  0.00000000000E+00  0.00000000000E+00  0.12500000000E+03  0.12500000000E+03  0.00000000000E+00 0.  1.
         11   -1    0    0    0    0 -0.00000000000E+00 -0.00000000000E+00 -0.12500000000E+03  0.12500000000E+03  0.00000000000E+00 0. -1.
         24    1    1    2    0    0 -0.38634109288E+02  0.83984340349E+02 -0.24734999924E+02  0.12500000000E+03  0.80419002446E+02 0. -1.
        -24    1    1    2    0    0  0.38634109288E+02 -0.83984340349E+02  0.24734999924E+02  0.12500000000E+03  0.80419002446E+02 0.  1.
</event>
<event>
 4    1  0.1599584E-001  0.1250000E+03  0.7546771E-02  0.1126479E+00
        -11   -1    0    0    0    0  0.00000000000E+00  0.00000000000E+00  0.12500000000E+03  0.12500000000E+03  0.00000000000E+00 0.  1.
         11   -1    0    0    0    0 -0.00000000000E+00 -0.00000000000E+00 -0.12500000000E+03  0.12500000000E+03  0.00000000000E+00 0. -1.
         24    1    1    2    0    0  0.88080914202E+02 -0.20742915458E+02 -0.31133070154E+02  0.12500000000E+03  0.80419002446E+02 0. -1.
        -24    1    1    2    0    0 -0.88080914202E+02  0.20742915458E+02  0.31133070154E+02  0.12500000000E+03  0.80419002446E+02 0.  1.
</event>
<event>
 4    1  0.1599584E-001  0.1250000E+03  0.7546771E-02  0.1126479E+00
        -11   -1    0    0    0    0  0.00000000000E+00  0.00000000000E+00  0.12500000000E+03  0.12500000000E+03  0.00000000000E+00 0.  1.
         11   -1    0    0    0    0 -0.00000000000E+00 -0.00000000000E+00 -0.12500000000E+03  0.12500000000E+03  0.00000000000E+00 0. -1.
         24    1    1    2    0    0 -0.80404262232E+02 -0.67711255571E+00  0.51889114265E+02  0.12500000000E+03  0.80419002446E+02 0.  1.
        -24    1    1    2    0    0  0.80404262232E+02  0.67711255571E+00 -0.51889114265E+02  0.12500000000E+03  0.80419002446E+02 0. -1.
</event>
<event>
 4    1  0.1599584E-001  0.1250000E+03  0.7546771E-02  0.1126479E+00
        -11   -1    0    0    0    0  0.00000000000E+00  0.00000000000E+00  0.12500000000E+03  0.12500000000E+03  0.00000000000E+00 0.  1.
         11   -1    0    0    0    0 -0.00000000000E+00 -0.00000000000E+00 -0.12500000000E+03  0.12500000000E+03  0.00000000000E+00 0. -1.
         24    1    1    2    0    0  0.59168320048E+02 -0.70337937140E+02  0.26635850788E+02  0.12500000000E+03  0.80419002446E+02 0. -1.
        -24    1    1    2    0    0 -0.59168320048E+02  0.70337937140E+02 -0.26635850788E+02  0.12500000000E+03  0.80419002446E+02 0.  1.
</event>
<event>
 4    1  0.1599584E-001  0.1250000E+03  0.7546771E-02  0.1126479E+00
        -11   -1    0    0    0    0  0.00000000000E+00  0.00000000000E+00  0.12500000000E+03  0.12500000000E+03  0.00000000000E+00 0.  1.
         11   -1    0    0    0    0 -0.00000000000E+00 -0.00000000000E+00 -0.12500000000E+03  0.12500000000E+03  0.00000000000E+00 0. -1.
         24    1    1    2    0    0 -0.29059785431E+02  0.29447997793E+02  0.86290951683E+02  0.12500000000E+03  0.80419002446E+02 0.  1.
        -24    1    1    2    0    0  0.29059785431E+02 -0.29447997793E+02 -0.86290951683E+02  0.12500000000E+03  0.80419002446E+02 0. -1.
</event>
<event>
 4    1  0.1599584E-001  0.1250000E+03  0.7546771E-02  0.1126479E+00
        -11   -1    0    0    0    0  0.00000000000E+00  0.00000000000E+00  0.12500000000E+03  0.12500000000E+03  0.00000000000E+00 0.  1.
         11   -1    0    0    0    0 -0.00000000000E+00 -0.00000000000E+00 -0.12500000000E+03  0.12500000000E+03  0.00000000000E+00 0. -1.
         24    1    1    2    0    0 -0.79171678133E+02 -0.53741871570E+02  0.12002779996E+01  0.12500000000E+03  0.80419002446E+02 0.  0.
        -24    1    1    2    0    0  0.79171678133E+02  0.53741871570E+02 -0.12002779996E+01  0.12500000000E+03  0.80419002446E+02 0. -1.
</event>
<event>
 4    1  0.1599584E-001  0.1250000E+03  0.7546771E-02  0.1126479E+00
        -11   -1    0    0    0    0  0.00000000000E+00  0.00000000000E+00  0.12500000000E+03  0.12500000000E+03  0.00000000000E+00 0.  1.
         11   -1    0    0    0    0 -0.00000000000E+00 -0.00000000000E+00 -0.12500000000E+03  0.12500000000E+03  0.00000000000E+00 0. -1.
         24    1    1    2    0    0 -0.67310255099E+02  0.82685054943E+01  0.67518482070E+02  0.12500000000E+03  0.80419002446E+02 0.  1.
        -24    1    1    2    0    0  0.67310255099E+02 -0.82685054943E+01 -0.67518482070E+02  0.12500000000E+03  0.80419002446E+02 0. -1.
</event>
<event>
 4    1  0.1599584E-001  0.1250000E+03  0.7546771E-02  0.1126479E+00
        -11   -1    0    0    0    0  0.00000000000E+00  0.00000000000E+00  0.12500000000E+03  0.12500000000E+03  0.00000000000E+00 0.  1.
         11   -1    0    0    0    0 -0.00000000000E+00 -0.00000000000E+00 -0.12500000000E+03  0.12500000000E+03  0.00000000000E+00 0. -1.
         24    1    1    2    0    0  0.18103564645E+02 -0.24364029642E+02  0.90754829361E+02  0.12500000000E+03  0.80419002446E+02 0.  1.
        -24    1    1    2    0    0 -0.18103564645E+02  0.24364029642E+02 -0.90754829361E+02  0.12500000000E+03  0.80419002446E+02 0. -1.
</event>
<event>
 4    1  0.1599584E-001  0.1250000E+03  0.7546771E-02  0.1126479E+00
        -11   -1    0    0    0    0  0.00000000000E+00  0.00000000000E+00  0.12500000000E+03  0.12500000000E+03  0.00000000000E+00 0.  1.
         11   -1    0    0    0    0 -0.00000000000E+00 -0.00000000000E+00 -0.12500000000E+03  0.12500000000E+03  0.00000000000E+00 0. -1.
         24    1    1    2    0    0 -0.90661458755E+02 -0.30564515864E+02 -0.20234406575E+01  0.12500000000E+03  0.80419002446E+02 0.  1.
        -24    1    1    2    0    0  0.90661458755E+02  0.30564515864E+02  0.20234406575E+01  0.12500000000E+03  0.80419002446E+02 0.  0.
</event>
<event>
 4    1  0.1599584E-001  0.1250000E+03  0.7546771E-02  0.1126479E+00
        -11   -1    0    0    0    0  0.00000000000E+00  0.00000000000E+00  0.12500000000E+03  0.12500000000E+03  0.00000000000E+00 0.  1.
         11   -1    0    0    0    0 -0.00000000000E+00 -0.00000000000E+00 -0.12500000000E+03  0.12500000000E+03  0.00000000000E+00 0. -1.
         24    1    1    2    0    0  0.94851512662E+02  0.33839794900E+01 -0.12227970976E+02  0.12500000000E+03  0.80419002446E+02 0.  1.
        -24    1    1    2    0    0 -0.94851512662E+02 -0.33839794900E+01  0.12227970976E+02  0.12500000000E+03  0.80419002446E+02 0. -1.
</event>
<event>
 4    1  0.1599584E-001  0.1250000E+03  0.7546771E-02  0.1126479E+00
        -11   -1    0    0    0    0  0.00000000000E+00  0.00000000000E+00  0.12500000000E+03  0.12500000000E+03  0.00000000000E+00 0.  1.
         11   -1    0    0    0    0 -0.00000000000E+00 -0.00000000000E+00 -0.12500000000E+03  0.12500000000E+03  0.00000000000E+00 0. -1.
         24    1    1    2    0    0 -0.46191763582E+01 -0.10867688137E+02  0.94964944111E+02  0.12500000000E+03  0.80419002446E+02 0.  1.
        -24    1    1    2    0    0  0.46191763582E+01  0.10867688137E+02 -0.94964944111E+02  0.12500000000E+03  0.80419002446E+02 0.  0.
</event>
<event>
 4    1  0.1599584E-001  0.1250000E+03  0.7546771E-02  0.1126479E+00
        -11   -1    0    0    0    0  0.00000000000E+00  0.00000000000E+00  0.12500000000E+03  0.12500000000E+03  0.00000000000E+00 0.  1.
         11   -1    0    0    0    0 -0.00000000000E+00 -0.00000000000E+00 -0.12500000000E+03  0.12500000000E+03  0.00000000000E+00 0. -1.
         24    1    1    2    0    0  0.10989715164E+02 -0.31205140306E+02  0.89795598025E+02  0.12500000000E+03  0.80419002446E+02 0.  1.
        -24    1    1    2    0    0 -0.10989715164E+02  0.31205140306E+02 -0.89795598025E+02  0.12500000000E+03  0.80419002446E+02 0. -1.
</event>
<event>
 4    1  0.1599584E-001  0.1250000E+03  0.7546771E-02  0.1126479E+00
        -11   -1    0    0    0    0  0.00000000000E+00  0.00000000000E+00  0.12500000000E+03  0.12500000000E+03  0.00000000000E+00 0.  1.
         11   -1    0    0    0    0 -0.00000000000E+00 -0.00000000000E+00 -0.12500000000E+03  0.12500000000E+03  0.00000000000E+00 0. -1.
         24    1    1    2    0    0  0.57771676875E+02 -0.24673849462E+02  0.72190155488E+02  0.12500000000E+03  0.80419002446E+02 0.  1.
        -24    1    1    2    0    0 -0.57771676875E+02  0.24673849462E+02 -0.72190155488E+02  0.12500000000E+03  0.80419002446E+02 0. -1.
</event>
<event>
 4    1  0.1599584E-001  0.1250000E+03  0.7546771E-02  0.1126479E+00
        -11   -1    0    0    0    0  0.00000000000E+00  0.00000000000E+00  0.12500000000E+03  0.12500000000E+03  0.00000000000E+00 0.  1.
         11   -1    0    0    0    0 -0.00000000000E+00 -0.00000000000E+00 -0.12500000000E+03  0.12500000000E+03  0.00000000000E+00 0. -1.
         24    1    1    2    0    0  0.58565755527E+02  0.45714147418E+02  0.60316275175E+02  0.12500000000E+03  0.80419002446E+02 0.  1.
        -24    1    1    2    0    0 -0.58565755527E+02 -0.45714147418E+02 -0.60316275175E+02  0.12500000000E+03  0.80419002446E+02 0. -1.
</event>
<event>
 4    1  0.1599584E-001  0.1250000E+03  0.7546771E-02  0.1126479E+00
        -11   -1    0    0    0    0  0.00000000000E+00  0.00000000000E+00  0.12500000000E+03  0.12500000000E+03  0.00000000000E+00 0.  1.
         11   -1    0    0    0    0 -0.00000000000E+00 -0.00000000000E+00 -0.12500000000E+03  0.12500000000E+03  0.00000000000E+00 0. -1.
         24    1    1    2    0    0  0.43450925225E+02  0.59260065617E+02  0.61302901773E+02  0.12500000000E+03  0.80419002446E+02 0.  1.
        -24    1    1    2    0    0 -0.43450925225E+02 -0.59260065617E+02 -0.61302901773E+02  0.12500000000E+03  0.80419002446E+02 0. -1.
</event>
<event>
 4    1  0.1599584E-001  0.1250000E+03  0.7546771E-02  0.1126479E+00
        -11   -1    0    0    0    0  0.00000000000E+00  0.00000000000E+00  0.12500000000E+03  0.12500000000E+03  0.00000000000E+00 0.  1.
         11   -1    0    0    0    0 -0.00000000000E+00 -0.00000000000E+00 -0.12500000000E+03  0.12500000000E+03  0.00000000000E+00 0. -1.
         24    1    1    2    0    0  0.42674519434E+02  0.19144068507E+02  0.83487568402E+02  0.12500000000E+03  0.80419002446E+02 0.  1.
        -24    1    1    2    0    0 -0.42674519434E+02 -0.19144068507E+02 -0.83487568402E+02  0.12500000000E+03  0.80419002446E+02 0. -1.
</event>
<event>
 4    1  0.1599584E-001  0.1250000E+03  0.7546771E-02  0.1126479E+00
        -11   -1    0    0    0    0  0.00000000000E+00  0.00000000000E+00  0.12500000000E+03  0.12500000000E+03  0.00000000000E+00 0.  1.
         11   -1    0    0    0    0 -0.00000000000E+00 -0.00000000000E+00 -0.12500000000E+03  0.12500000000E+03  0.00000000000E+00 0. -1.
         24    1    1    2    0    0  0.68844649661E+02  0.60706054509E+02  0.27073477882E+02  0.12500000000E+03  0.80419002446E+02 0.  1.
        -24    1    1    2    0    0 -0.68844649661E+02 -0.60706054509E+02 -0.27073477882E+02  0.12500000000E+03  0.80419002446E+02 0. -1.
</event>
<event>
 4    1  0.1599584E-001  0.1250000E+03  0.7546771E-02  0.1126479E+00
        -11   -1    0    0    0    0  0.00000000000E+00  0.00000000000E+00  0.12500000000E+03  0.12500000000E+03  0.00000000000E+00 0.  1.
         11   -1    0    0    0    0 -0.00000000000E+00 -0.00000000000E+00 -0.12500000000E+03  0.12500000000E+03  0.00000000000E+00 0. -1.
         24    1    1    2    0    0 -0.31298924014E+02 -0.89778429403E+02 -0.10862551043E+02  0.12500000000E+03  0.80419002446E+02 0.  1.
        -24    1    1    2    0    0  0.31298924014E+02  0.89778429403E+02  0.10862551043E+02  0.12500000000E+03  0.80419002446E+02 0. -1.
</event>
<event>
 4    1  0.1599584E-001  0.1250000E+03  0.7546771E-02  0.1126479E+00
        -11   -1    0    0    0    0  0.00000000000E+00  0.00000000000E+00  0.12500000000E+03  0.12500000000E+03  0.00000000000E+00 0.  1.
         11   -1    0    0    0    0 -0.00000000000E+00 -0.00000000000E+00 -0.12500000000E+03  0.12500000000E+03  0.00000000000E+00 0. -1.
         24    1    1    2    0    0 -0.19405003376E+02 -0.77362424777E+02  0.52879912275E+02  0.12500000000E+03  0.80419002446E+02 0.  1.
        -24    1    1    2    0    0  0.19405003376E+02  0.77362424777E+02 -0.52879912275E+02  0.12500000000E+03  0.80419002446E+02 0. -1.
</event>
<event>
 4    1  0.1599584E-001  0.1250000E+03  0.7546771E-02  0.1126479E+00
        -11   -1    0    0    0    0  0.00000000000E+00  0.00000000000E+00  0.12500000000E+03  0.12500000000E+03  0.00000000000E+00 0.  1.
         11   -1    0    0    0    0 -0.00000000000E+00 -0.00000000000E+00 -0.12500000000E+03  0.12500000000E+03  0.00000000000E+00 0. -1.
         24    1    1    2    0    0 -0.11296255693E+02 -0.26381528710E+02  0.91291804648E+02  0.12500000000E+03  0.80419002446E+02 0.  1.
        -24    1    1    2    0    0  0.11296255693E+02  0.26381528710E+02 -0.91291804648E+02  0.12500000000E+03  0.80419002446E+02 0. -1.
</event>
<event>
 4    1  0.1599584E-001  0.1250000E+03  0.7546771E-02  0.1126479E+00
        -11   -1    0    0    0    0  0.00000000000E+00  0.00000000000E+00  0.12500000000E+03  0.12500000000E+03  0.00000000000E+00 0.  1.
         11   -1    0    0    0    0 -0.00000000000E+00 -0.00000000000E+00 -0.12500000000E+03  0.12500000000E+03  0.00000000000E+00 0. -1.
         24    1    1    2    0    0  0.22659379766E+02 -0.23922963156E+02  0.89844467766E+02  0.12500000000E+03  0.80419002446E+02 0.  1.
        -24    1    1    2    0    0 -0.22659379766E+02  0.23922963156E+02 -0.89844467766E+02  0.12500000000E+03  0.80419002446E+02 0. -1.
</event>
<event>
 4    1  0.1599584E-001  0.1250000E+03  0.7546771E-02  0.1126479E+00
        -11   -1    0    0    0    0  0.00000000000E+00  0.00000000000E+00  0.12500000000E+03  0.12500000000E+03  0.00000000000E+00 0.  1.
         11   -1    0    0    0    0 -0.00000000000E+00 -0.00000000000E+00 -0.12500000000E+03  0.12500000000E+03  0.00000000000E+00 0. -1.
         24    1    1    2    0    0  0.68962525057E+02 -0.62136090919E+02 -0.23260704820E+02  0.12500000000E+03  0.80419002446E+02 0.  0.
        -24    1    1    2    0    0 -0.68962525057E+02  0.62136090919E+02  0.23260704820E+02  0.12500000000E+03  0.80419002446E+02 0.  0.
</event>
<event>
 4    1  0.1599584E-001  0.1250000E+03  0.7546771E-02  0.1126479E+00
        -11   -1    0    0    0    0  0.00000000000E+00  0.00000000000E+00  0.12500000000E+03  0.12500000000E+03  0.00000000000E+00 0.  1.
         11   -1    0    0    0    0 -0.00000000000E+00 -0.00000000000E+00 -0.12500000000E+03  0.12500000000E+03  0.00000000000E+00 0. -1.
         24    1    1    2    0    0  0.37054382649E+02  0.20673257889E+02  0.85775131480E+02  0.12500000000E+03  0.80419002446E+02 0.  1.
        -24    1    1    2    0    0 -0.37054382649E+02 -0.20673257889E+02 -0.85775131480E+02  0.12500000000E+03  0.80419002446E+02 0. -1.
</event>
<event>
 4    1  0.1599584E-001  0.1250000E+03  0.7546771E-02  0.1126479E+00
        -11   -1    0    0    0    0  0.00000000000E+00  0.00000000000E+00  0.12500000000E+03  0.12500000000E+03  0.00000000000E+00 0.  1.
         11   -1    0    0    0    0 -0.00000000000E+00 -0.00000000000E+00 -0.12500000000E+03  0.12500000000E+03  0.00000000000E+00 0. -1.
         24    1    1    2    0    0 -0.95143428147E+02 -0.92788094658E+01  0.44063387214E+01  0.12500000000E+03  0.80419002446E+02 0. -1.
        -24    1    1    2    0    0  0.95143428147E+02  0.92788094658E+01 -0.44063387214E+01  0.12500000000E+03  0.80419002446E+02 0.  1.
</event>
<event>
 4    1  0.1599584E-001  0.1250000E+03  0.7546771E-02  0.1126479E+00
        -11   -1    0    0    0    0  0.00000000000E+00  0.00000000000E+00  0.12500000000E+03  0.12500000000E+03  0.00000000000E+00 0.  1.
         11   -1    0    0    0    0 -0.00000000000E+00 -0.00000000000E+00 -0.12500000000E+03  0.12500000000E+03  0.00000000000E+00 0. -1.
         24    1    1    2    0    0 -0.31980160674E+02  0.87566358560E+02  0.21614490911E+02  0.12500000000E+03  0.80419002446E+02 0.  1.
        -24    1    1    2    0    0  0.31980160674E+02 -0.87566358560E+02 -0.21614490911E+02  0.12500000000E+03  0.80419002446E+02 0. -1.
</event>
<event>
 4    1  0.1599584E-001  0.1250000E+03  0.7546771E-02  0.1126479E+00
        -11   -1    0    0    0    0  0.00000000000E+00  0.00000000000E+00  0.12500000000E+03  0.12500000000E+03  0.00000000000E+00 0.  1.
         11   -1    0    0    0    0 -0.00000000000E+00 -0.00000000000E+00 -0.12500000000E+03  0.12500000000E+03  0.00000000000E+00 0. -1.
         24    1    1    2    0    0 -0.73358186874E+02  0.38552499058E+02  0.47854626533E+02  0.12500000000E+03  0.80419002446E+02 0.  1.
        -24    1    1    2    0    0  0.73358186874E+02 -0.38552499058E+02 -0.47854626533E+02  0.12500000000E+03  0.80419002446E+02 0.  0.
</event>
<event>
 4    1  0.1599584E-001  0.1250000E+03  0.7546771E-02  0.1126479E+00
        -11   -1    0    0    0    0  0.00000000000E+00  0.00000000000E+00  0.12500000000E+03  0.12500000000E+03  0.00000000000E+00 0.  1.
         11   -1    0    0    0    0 -0.00000000000E+00 -0.00000000000E+00 -0.12500000000E+03  0.12500000000E+03  0.00000000000E+00 0. -1.
         24    1    1    2    0    0 -0.19486178045E+02  0.39518478704E+02  0.84949177464E+02  0.12500000000E+03  0.80419002446E+02 0.  1.
        -24    1    1    2    0    0  0.19486178045E+02 -0.39518478704E+02 -0.84949177464E+02  0.12500000000E+03  0.80419002446E+02 0. -1.
</event>
<event>
 4    1  0.1599584E-001  0.1250000E+03  0.7546771E-02  0.1126479E+00
        -11   -1    0    0    0    0  0.00000000000E+00  0.00000000000E+00  0.12500000000E+03  0.12500000000E+03  0.00000000000E+00 0.  1.
         11   -1    0    0    0    0 -0.00000000000E+00 -0.00000000000E+00 -0.12500000000E+03  0.12500000000E+03  0.00000000000E+00 0. -1.
         24    1    1    2    0    0  0.92007757405E+02 -0.40889087317E+01  0.25993026919E+02  0.12500000000E+03  0.80419002446E+02 0.  0.
        -24    1    1    2    0    0 -0.92007757405E+02  0.40889087317E+01 -0.25993026919E+02  0.12500000000E+03  0.80419002446E+02 0. -1.
</event>
<event>
 4    1  0.1599584E-001  0.1250000E+03  0.7546771E-02  0.1126479E+00
        -11   -1    0    0    0    0  0.00000000000E+00  0.00000000000E+00  0.12500000000E+03  0.12500000000E+03  0.00000000000E+00 0.  1.
         11   -1    0    0    0    0 -0.00000000000E+00 -0.00000000000E+00 -0.12500000000E+03  0.12500000000E+03  0.00000000000E+00 0. -1.
         24    1    1    2    0    0 -0.92953637449E+02 -0.36153464808E+01 -0.22457395229E+02  0.12500000000E+03  0.80419002446E+02 0.  0.
        -24    1    1    2    0    0  0.92953637449E+02  0.36153464808E+01  0.22457395229E+02  0.12500000000E+03  0.80419002446E+02 0. -1.
</event>
<event>
 4    1  0.1599584E-001  0.1250000E+03  0.7546771E-02  0.1126479E+00
        -11   -1    0    0    0    0  0.00000000000E+00  0.00000000000E+00  0.12500000000E+03  0.12500000000E+03  0.00000000000E+00 0.  1.
         11   -1    0    0    0    0 -0.00000000000E+00 -0.00000000000E+00 -0.12500000000E+03  0.12500000000E+03  0.00000000000E+00 0. -1.
         24    1    1    2    0    0 -0.19560108189E+02  0.14019972799E+02  0.92620875487E+02  0.12500000000E+03  0.80419002446E+02 0.  1.
        -24    1    1    2    0    0  0.19560108189E+02 -0.14019972799E+02 -0.92620875487E+02  0.12500000000E+03  0.80419002446E+02 0. -1.
</event>
<event>
 4    1  0.1599584E-001  0.1250000E+03  0.7546771E-02  0.1126479E+00
        -11   -1    0    0    0    0  0.00000000000E+00  0.00000000000E+00  0.12500000000E+03  0.12500000000E+03  0.00000000000E+00 0.  1.
         11   -1    0    0    0    0 -0.00000000000E+00 -0.00000000000E+00 -0.12500000000E+03  0.12500000000E+03  0.00000000000E+00 0. -1.
         24    1    1    2    0    0  0.37844899819E+02 -0.38040470850E+02  0.79236798148E+02  0.12500000000E+03  0.80419002446E+02 0.  1.
        -24    1    1    2    0    0 -0.37844899819E+02  0.38040470850E+02 -0.79236798148E+02  0.12500000000E+03  0.80419002446E+02 0. -1.
</event>
<event>
 4    1  0.1599584E-001  0.1250000E+03  0.7546771E-02  0.1126479E+00
        -11   -1    0    0    0    0  0.00000000000E+00  0.00000000000E+00  0.12500000000E+03  0.12500000000E+03  0.00000000000E+00 0.  1.
         11   -1    0    0    0    0 -0.00000000000E+00 -0.00000000000E+00 -0.12500000000E+03  0.12500000000E+03  0.00000000000E+00 0. -1.
         24    1    1    2    0    0 -0.86931450744E+01  0.51611846232E+01  0.95160787342E+02  0.12500000000E+03  0.80419002446E+02 0.  1.
        -24    1    1    2    0    0  0.86931450744E+01 -0.51611846232E+01 -0.95160787342E+02  0.12500000000E+03  0.80419002446E+02 0. -1.
</event>
<event>
 4    1  0.1599584E-001  0.1250000E+03  0.7546771E-02  0.1126479E+00
        -11   -1    0    0    0    0  0.00000000000E+00  0.00000000000E+00  0.12500000000E+03  0.12500000000E+03  0.00000000000E+00 0.  1.
         11   -1    0    0    0    0 -0.00000000000E+00 -0.00000000000E+00 -0.12500000000E+03  0.12500000000E+03  0.00000000000E+00 0. -1.
         24    1    1    2    0    0  0.33405470377E+01 -0.35502441114E+02  0.88804287431E+02  0.12500000000E+03  0.80419002446E+02 0.  1.
        -24    1    1    2    0    0 -0.33405470377E+01  0.35502441114E+02 -0.88804287431E+02  0.12500000000E+03  0.80419002446E+02 0. -1.
</event>
<event>
 4    1  0.1599584E-001  0.1250000E+03  0.7546771E-02  0.1126479E+00
        -11   -1    0    0    0    0  0.00000000000E+00  0.00000000000E+00  0.12500000000E+03  0.12500000000E+03  0.00000000000E+00 0.  1.
         11   -1    0    0    0    0 -0.00000000000E+00 -0.00000000000E+00 -0.12500000000E+03  0.12500000000E+03  0.00000000000E+00 0. -1.
         24    1    1    2    0    0  0.65080479497E+02  0.68175691073E+02  0.16564733042E+02  0.12500000000E+03  0.80419002446E+02 0.  1.
        -24    1    1    2    0    0 -0.65080479497E+02 -0.68175691073E+02 -0.16564733042E+02  0.12500000000E+03  0.80419002446E+02 0. -1.
</event>
<event>
 4    1  0.1599584E-001  0.1250000E+03  0.7546771E-02  0.1126479E+00
        -11   -1    0    0    0    0  0.00000000000E+00  0.00000000000E+00  0.12500000000E+03  0.12500000000E+03  0.00000000000E+00 0.  1.
         11   -1    0    0    0    0 -0.00000000000E+00 -0.00000000000E+00 -0.12500000000E+03  0.12500000000E+03  0.00000000000E+00 0. -1.
         24    1    1    2    0    0 -0.24560048756E+02 -0.60621544392E+02  0.69854251169E+02  0.12500000000E+03  0.80419002446E+02 0.  1.
        -24    1    1    2    0    0  0.24560048756E+02  0.60621544392E+02 -0.69854251169E+02  0.12500000000E+03  0.80419002446E+02 0. -1.
</event>
<event>
 4    1  0.1599584E-001  0.1250000E+03  0.7546771E-02  0.1126479E+00
        -11   -1    0    0    0    0  0.00000000000E+00  0.00000000000E+00  0.12500000000E+03  0.12500000000E+03  0.00000000000E+00 0.  1.
         11   -1    0    0    0    0 -0.00000000000E+00 -0.00000000000E+00 -0.12500000000E+03  0.12500000000E+03  0.00000000000E+00 0. -1.
         24    1    1    2    0    0 -0.61390172590E+02 -0.15811821769E+02  0.71686937774E+02  0.12500000000E+03  0.80419002446E+02 0.  1.
        -24    1    1    2    0    0  0.61390172590E+02  0.15811821769E+02 -0.71686937774E+02  0.12500000000E+03  0.80419002446E+02 0. -1.
</event>
<event>
 4    1  0.1599584E-001  0.1250000E+03  0.7546771E-02  0.1126479E+00
        -11   -1    0    0    0    0  0.00000000000E+00  0.00000000000E+00  0.12500000000E+03  0.12500000000E+03  0.00000000000E+00 0.  1.
         11   -1    0    0    0    0 -0.00000000000E+00 -0.00000000000E+00 -0.12500000000E+03  0.12500000000E+03  0.00000000000E+00 0. -1.
         24    1    1    2    0    0  0.19404436573E+02  0.32043537430E+02  0.88059432180E+02  0.12500000000E+03  0.80419002446E+02 0.  1.
        -24    1    1    2    0    0 -0.19404436573E+02 -0.32043537430E+02 -0.88059432180E+02  0.12500000000E+03  0.80419002446E+02 0. -1.
</event>
<event>
 4    1  0.1599584E-001  0.1250000E+03  0.7546771E-02  0.1126479E+00
        -11   -1    0    0    0    0  0.00000000000E+00  0.00000000000E+00  0.12500000000E+03  0.12500000000E+03  0.00000000000E+00 0.  1.
         11   -1    0    0    0    0 -0.00000000000E+00 -0.00000000000E+00 -0.12500000000E+03  0.12500000000E+03  0.00000000000E+00 0. -1.
         24    1    1    2    0    0 -0.10309303694E+02 -0.23605456662E+02  0.92164443897E+02  0.12500000000E+03  0.80419002446E+02 0.  1.
        -24    1    1    2    0    0  0.10309303694E+02  0.23605456662E+02 -0.92164443897E+02  0.12500000000E+03  0.80419002446E+02 0. -1.
</event>
<event>
 4    1  0.1599584E-001  0.1250000E+03  0.7546771E-02  0.1126479E+00
        -11   -1    0    0    0    0  0.00000000000E+00  0.00000000000E+00  0.12500000000E+03  0.12500000000E+03  0.00000000000E+00 0.  1.
         11   -1    0    0    0    0 -0.00000000000E+00 -0.00000000000E+00 -0.12500000000E+03  0.12500000000E+03  0.00000000000E+00 0. -1.
         24    1    1    2    0    0 -0.27984366726E+02 -0.50269141138E+02  0.76470077245E+02  0.12500000000E+03  0.80419002446E+02 0.  1.
        -24    1    1    2    0    0  0.27984366726E+02  0.50269141138E+02 -0.76470077245E+02  0.12500000000E+03  0.80419002446E+02 0. -1.
</event>
<event>
 4    1  0.1599584E-001  0.1250000E+03  0.7546771E-02  0.1126479E+00
        -11   -1    0    0    0    0  0.00000000000E+00  0.00000000000E+00  0.12500000000E+03  0.12500000000E+03  0.00000000000E+00 0.  1.
         11   -1    0    0    0    0 -0.00000000000E+00 -0.00000000000E+00 -0.12500000000E+03  0.12500000000E+03  0.00000000000E+00 0. -1.
         24    1    1    2    0    0  0.92108082170E+02 -0.19369750265E+02  0.17282882260E+02  0.12500000000E+03  0.80419002446E+02 0.  0.
        -24    1    1    2    0    0 -0.92108082170E+02  0.19369750265E+02 -0.17282882260E+02  0.12500000000E+03  0.80419002446E+02 0.  1.
</event>
<event>
 4    1  0.1599584E-001  0.1250000E+03  0.7546771E-02  0.1126479E+00
        -11   -1    0    0    0    0  0.00000000000E+00  0.00000000000E+00  0.12500000000E+03  0.12500000000E+03  0.00000000000E+00 0.  1.
         11   -1    0    0    0    0 -0.00000000000E+00 -0.00000000000E+00 -0.12500000000E+03  0.12500000000E+03  0.00000000000E+00 0. -1.
         24    1    1    2    0    0 -0.25935196112E+02 -0.22404117261E+02  0.89348783864E+02  0.12500000000E+03  0.80419002446E+02 0.  1.
        -24    1    1    2    0    0  0.25935196112E+02  0.22404117261E+02 -0.89348783864E+02  0.12500000000E+03  0.80419002446E+02 0. -1.
</event>
<event>
 4    1  0.1599584E-001  0.1250000E+03  0.7546771E-02  0.1126479E+00
        -11   -1    0    0    0    0  0.00000000000E+00  0.00000000000E+00  0.12500000000E+03  0.12500000000E+03  0.00000000000E+00 0.  1.
         11   -1    0    0    0    0 -0.00000000000E+00 -0.00000000000E+00 -0.12500000000E+03  0.12500000000E+03  0.00000000000E+00 0. -1.
         24    1    1    2    0    0 -0.11980882916E+02  0.62691725943E+02  0.71302103675E+02  0.12500000000E+03  0.80419002446E+02 0.  1.
        -24    1    1    2    0    0  0.11980882916E+02 -0.62691725943E+02 -0.71302103675E+02  0.12500000000E+03  0.80419002446E+02 0. -1.
</event>
<event>
 4    1  0.1599584E-001  0.1250000E+03  0.7546771E-02  0.1126479E+00
        -11   -1    0    0    0    0  0.00000000000E+00  0.00000000000E+00  0.12500000000E+03  0.12500000000E+03  0.00000000000E+00 0.  1.
         11   -1    0    0    0    0 -0.00000000000E+00 -0.00000000000E+00 -0.12500000000E+03  0.12500000000E+03  0.00000000000E+00 0. -1.
         24    1    1    2    0    0 -0.32867371712E+02  0.44582683546E+02  0.78037838580E+02  0.12500000000E+03  0.80419002446E+02 0.  1.
        -24    1    1    2    0    0  0.32867371712E+02 -0.44582683546E+02 -0.78037838580E+02  0.12500000000E+03  0.80419002446E+02 0. -1.
</event>
<event>
 4    1  0.1599584E-001  0.1250000E+03  0.7546771E-02  0.1126479E+00
        -11   -1    0    0    0    0  0.00000000000E+00  0.00000000000E+00  0.12500000000E+03  0.12500000000E+03  0.00000000000E+00 0.  1.
         11   -1    0    0    0    0 -0.00000000000E+00 -0.00000000000E+00 -0.12500000000E+03  0.12500000000E+03  0.00000000000E+00 0. -1.
         24    1    1    2    0    0 -0.31017796122E+02  0.17275692123E+02  0.88866365015E+02  0.12500000000E+03  0.80419002446E+02 0.  1.
        -24    1    1    2    0    0  0.31017796122E+02 -0.17275692123E+02 -0.88866365015E+02  0.12500000000E+03  0.80419002446E+02 0. -1.
</event>
<event>
 4    1  0.1599584E-001  0.1250000E+03  0.7546771E-02  0.1126479E+00
        -11   -1    0    0    0    0  0.00000000000E+00  0.00000000000E+00  0.12500000000E+03  0.12500000000E+03  0.00000000000E+00 0.  1.
         11   -1    0    0    0    0 -0.00000000000E+00 -0.00000000000E+00 -0.12500000000E+03  0.12500000000E+03  0.00000000000E+00 0. -1.
         24    1    1    2    0    0 -0.90673811833E+02  0.12427901567E+01  0.30569582366E+02  0.12500000000E+03  0.80419002446E+02 0.  1.
        -24    1    1    2    0    0  0.90673811833E+02 -0.12427901567E+01 -0.30569582366E+02  0.12500000000E+03  0.80419002446E+02 0. -1.
</event>
<event>
 4    1  0.1599584E-001  0.1250000E+03  0.7546771E-02  0.1126479E+00
        -11   -1    0    0    0    0  0.00000000000E+00  0.00000000000E+00  0.12500000000E+03  0.12500000000E+03  0.00000000000E+00 0.  1.
         11   -1    0    0    0    0 -0.00000000000E+00 -0.00000000000E+00 -0.12500000000E+03  0.12500000000E+03  0.00000000000E+00 0. -1.
         24    1    1    2    0    0 -0.37144283655E+02  0.18525248173E+01  0.88174000642E+02  0.12500000000E+03  0.80419002446E+02 0.  1.
        -24    1    1    2    0    0  0.37144283655E+02 -0.18525248173E+01 -0.88174000642E+02  0.12500000000E+03  0.80419002446E+02 0. -1.
</event>
<event>
 4    1  0.1599584E-001  0.1250000E+03  0.7546771E-02  0.1126479E+00
        -11   -1    0    0    0    0  0.00000000000E+00  0.00000000000E+00  0.12500000000E+03  0.12500000000E+03  0.00000000000E+00 0.  1.
         11   -1    0    0    0    0 -0.00000000000E+00 -0.00000000000E+00 -0.12500000000E+03  0.12500000000E+03  0.00000000000E+00 0. -1.
         24    1    1    2    0    0  0.35514209195E+00  0.31915841406E+02  0.90216611481E+02  0.12500000000E+03  0.80419002446E+02 0.  1.
        -24    1    1    2    0    0 -0.35514209195E+00 -0.31915841406E+02 -0.90216611481E+02  0.12500000000E+03  0.80419002446E+02 0. -1.
</event>
<event>
 4    1  0.1599584E-001  0.1250000E+03  0.7546771E-02  0.1126479E+00
        -11   -1    0    0    0    0  0.00000000000E+00  0.00000000000E+00  0.12500000000E+03  0.12500000000E+03  0.00000000000E+00 0.  1.
         11   -1    0    0    0    0 -0.00000000000E+00 -0.00000000000E+00 -0.12500000000E+03  0.12500000000E+03  0.00000000000E+00 0. -1.
         24    1    1    2    0    0 -0.30306354669E+02 -0.59863741442E+02  0.68232260500E+02  0.12500000000E+03  0.80419002446E+02 0.  1.
        -24    1    1    2    0    0  0.30306354669E+02  0.59863741442E+02 -0.68232260500E+02  0.12500000000E+03  0.80419002446E+02 0. -1.
</event>
<event>
 4    1  0.1599584E-001  0.1250000E+03  0.7546771E-02  0.1126479E+00
        -11   -1    0    0    0    0  0.00000000000E+00  0.00000000000E+00  0.12500000000E+03  0.12500000000E+03  0.00000000000E+00 0.  1.
         11   -1    0    0    0    0 -0.00000000000E+00 -0.00000000000E+00 -0.12500000000E+03  0.12500000000E+03  0.00000000000E+00 0. -1.
         24    1    1    2    0    0 -0.91375352357E+02 -0.16924731863E+02  0.22844747285E+02  0.12500000000E+03  0.80419002446E+02 0.  1.
        -24    1    1    2    0    0  0.91375352357E+02  0.16924731863E+02 -0.22844747285E+02  0.12500000000E+03  0.80419002446E+02 0. -1.
</event>
<event>
 4    1  0.1599584E-001  0.1250000E+03  0.7546771E-02  0.1126479E+00
        -11   -1    0    0    0    0  0.00000000000E+00  0.00000000000E+00  0.12500000000E+03  0.12500000000E+03  0.00000000000E+00 0.  1.
         11   -1    0    0    0    0 -0.00000000000E+00 -0.00000000000E+00 -0.12500000000E+03  0.12500000000E+03  0.00000000000E+00 0. -1.
         24    1    1    2    0    0  0.32196748997E+02  0.62243980008E+01  0.89902226163E+02  0.12500000000E+03  0.80419002446E+02 0.  1.
        -24    1    1    2    0    0 -0.32196748997E+02 -0.62243980008E+01 -0.89902226163E+02  0.12500000000E+03  0.80419002446E+02 0. -1.
</event>
<event>
 4    1  0.1599584E-001  0.1250000E+03  0.7546771E-02  0.1126479E+00
        -11   -1    0    0    0    0  0.00000000000E+00  0.00000000000E+00  0.12500000000E+03  0.12500000000E+03  0.00000000000E+00 0.  1.
         11   -1    0    0    0    0 -0.00000000000E+00 -0.00000000000E+00 -0.12500000000E+03  0.12500000000E+03  0.00000000000E+00 0. -1.
         24    1    1    2    0    0 -0.11184926231E+02 -0.10873177660E+02  0.94416394119E+02  0.12500000000E+03  0.80419002446E+02 0.  1.
        -24    1    1    2    0    0  0.11184926231E+02  0.10873177660E+02 -0.94416394119E+02  0.12500000000E+03  0.80419002446E+02 0. -1.
</event>
<event>
 4    1  0.1599584E-001  0.1250000E+03  0.7546771E-02  0.1126479E+00
        -11   -1    0    0    0    0  0.00000000000E+00  0.00000000000E+00  0.12500000000E+03  0.12500000000E+03  0.00000000000E+00 0.  1.
         11   -1    0    0    0    0 -0.00000000000E+00 -0.00000000000E+00 -0.12500000000E+03  0.12500000000E+03  0.00000000000E+00 0. -1.
         24    1    1    2    0    0  0.74243959159E+01  0.85619502327E+02  0.42094693396E+02  0.12500000000E+03  0.80419002446E+02 0. -1.
        -24    1    1    2    0    0 -0.74243959159E+01 -0.85619502327E+02 -0.42094693396E+02  0.12500000000E+03  0.80419002446E+02 0.  0.
</event>
<event>
 4    1  0.1599584E-001  0.1250000E+03  0.7546771E-02  0.1126479E+00
        -11   -1    0    0    0    0  0.00000000000E+00  0.00000000000E+00  0.12500000000E+03  0.12500000000E+03  0.00000000000E+00 0.  1.
         11   -1    0    0    0    0 -0.00000000000E+00 -0.00000000000E+00 -0.12500000000E+03  0.12500000000E+03  0.00000000000E+00 0. -1.
         24    1    1    2    0    0 -0.62761500559E+02  0.49437149109E+01  0.72071754357E+02  0.12500000000E+03  0.80419002446E+02 0.  1.
        -24    1    1    2    0    0  0.62761500559E+02 -0.49437149109E+01 -0.72071754357E+02  0.12500000000E+03  0.80419002446E+02 0. -1.
</event>
<event>
 4    1  0.1599584E-001  0.1250000E+03  0.7546771E-02  0.1126479E+00
        -11   -1    0    0    0    0  0.00000000000E+00  0.00000000000E+00  0.12500000000E+03  0.12500000000E+03  0.00000000000E+00 0.  1.
         11   -1    0    0    0    0 -0.00000000000E+00 -0.00000000000E+00 -0.12500000000E+03  0.12500000000E+03  0.00000000000E+00 0. -1.
         24    1    1    2    0    0  0.27549966154E+02 -0.89363600601E+02  0.20320686459E+02  0.12500000000E+03  0.80419002446E+02 0.  0.
        -24    1    1    2    0    0 -0.27549966154E+02  0.89363600601E+02 -0.20320686459E+02  0.12500000000E+03  0.80419002446E+02 0. -1.
</event>
<event>
 4    1  0.1599584E-001  0.1250000E+03  0.7546771E-02  0.1126479E+00
        -11   -1    0    0    0    0  0.00000000000E+00  0.00000000000E+00  0.12500000000E+03  0.12500000000E+03  0.00000000000E+00 0.  1.
         11   -1    0    0    0    0 -0.00000000000E+00 -0.00000000000E+00 -0.12500000000E+03  0.12500000000E+03  0.00000000000E+00 0. -1.
         24    1    1    2    0    0  0.24345915487E+02  0.21426366367E+02  0.90033167605E+02  0.12500000000E+03  0.80419002446E+02 0.  1.
        -24    1    1    2    0    0 -0.24345915487E+02 -0.21426366367E+02 -0.90033167605E+02  0.12500000000E+03  0.80419002446E+02 0. -1.
</event>
<event>
 4    1  0.1599584E-001  0.1250000E+03  0.7546771E-02  0.1126479E+00
        -11   -1    0    0    0    0  0.00000000000E+00  0.00000000000E+00  0.12500000000E+03  0.12500000000E+03  0.00000000000E+00 0.  1.
         11   -1    0    0    0    0 -0.00000000000E+00 -0.00000000000E+00 -0.12500000000E+03  0.12500000000E+03  0.00000000000E+00 0. -1.
         24    1    1    2    0    0 -0.20874976134E+02 -0.16644002165E+02  0.91896662665E+02  0.12500000000E+03  0.80419002446E+02 0.  1.
        -24    1    1    2    0    0  0.20874976134E+02  0.16644002165E+02 -0.91896662665E+02  0.12500000000E+03  0.80419002446E+02 0. -1.
</event>
<event>
 4    1  0.1599584E-001  0.1250000E+03  0.7546771E-02  0.1126479E+00
        -11   -1    0    0    0    0  0.00000000000E+00  0.00000000000E+00  0.12500000000E+03  0.12500000000E+03  0.00000000000E+00 0.  1.
         11   -1    0    0    0    0 -0.00000000000E+00 -0.00000000000E+00 -0.12500000000E+03  0.12500000000E+03  0.00000000000E+00 0. -1.
         24    1    1    2    0    0  0.35828713035E+02  0.53446079228E+02  0.70835047702E+02  0.12500000000E+03  0.80419002446E+02 0.  1.
        -24    1    1    2    0    0 -0.35828713035E+02 -0.53446079228E+02 -0.70835047702E+02  0.12500000000E+03  0.80419002446E+02 0. -1.
</event>
<event>
 4    1  0.1599584E-001  0.1250000E+03  0.7546771E-02  0.1126479E+00
        -11   -1    0    0    0    0  0.00000000000E+00  0.00000000000E+00  0.12500000000E+03  0.12500000000E+03  0.00000000000E+00 0.  1.
         11   -1    0    0    0    0 -0.00000000000E+00 -0.00000000000E+00 -0.12500000000E+03  0.12500000000E+03  0.00000000000E+00 0. -1.
         24    1    1    2    0    0 -0.67400464167E+02  0.48940508833E+02  0.47114626930E+02  0.12500000000E+03  0.80419002446E+02 0.  1.
        -24    1    1    2    0    0  0.67400464167E+02 -0.48940508833E+02 -0.47114626930E+02  0.12500000000E+03  0.80419002446E+02 0. -1.
</event>
<event>
 4    1  0.1599584E-001  0.1250000E+03  0.7546771E-02  0.1126479E+00
        -11   -1    0    0    0    0  0.00000000000E+00  0.00000000000E+00  0.12500000000E+03  0.12500000000E+03  0.00000000000E+00 0.  1.
         11   -1    0    0    0    0 -0.00000000000E+00 -0.00000000000E+00 -0.12500000000E+03  0.12500000000E+03  0.00000000000E+00 0. -1.
         24    1    1    2    0    0  0.27268199504E+01 -0.45250672637E+02  0.84277666819E+02  0.12500000000E+03  0.80419002446E+02 0.  1.
        -24    1    1    2    0    0 -0.27268199504E+01  0.45250672637E+02 -0.84277666819E+02  0.12500000000E+03  0.80419002446E+02 0. -1.
</event>
<event>
 4    1  0.1599584E-001  0.1250000E+03  0.7546771E-02  0.1126479E+00
        -11   -1    0    0    0    0  0.00000000000E+00  0.00000000000E+00  0.12500000000E+03  0.12500000000E+03  0.00000000000E+00 0.  1.
         11   -1    0    0    0    0 -0.00000000000E+00 -0.00000000000E+00 -0.12500000000E+03  0.12500000000E+03  0.00000000000E+00 0. -1.
         24    1    1    2    0    0 -0.46589793308E+02  0.17506412252E+02  0.81735553679E+02  0.12500000000E+03  0.80419002446E+02 0.  1.
        -24    1    1    2    0    0  0.46589793308E+02 -0.17506412252E+02 -0.81735553679E+02  0.12500000000E+03  0.80419002446E+02 0. -1.
</event>
<event>
 4    1  0.1599584E-001  0.1250000E+03  0.7546771E-02  0.1126479E+00
        -11   -1    0    0    0    0  0.00000000000E+00  0.00000000000E+00  0.12500000000E+03  0.12500000000E+03  0.00000000000E+00 0.  1.
         11   -1    0    0    0    0 -0.00000000000E+00 -0.00000000000E+00 -0.12500000000E+03  0.12500000000E+03  0.00000000000E+00 0. -1.
         24    1    1    2    0    0  0.20503251027E+02  0.14368169386E+02  0.92363176924E+02  0.12500000000E+03  0.80419002446E+02 0.  1.
        -24    1    1    2    0    0 -0.20503251027E+02 -0.14368169386E+02 -0.92363176924E+02  0.12500000000E+03  0.80419002446E+02 0. -1.
</event>
<event>
 4    1  0.1599584E-001  0.1250000E+03  0.7546771E-02  0.1126479E+00
        -11   -1    0    0    0    0  0.00000000000E+00  0.00000000000E+00  0.12500000000E+03  0.12500000000E+03  0.00000000000E+00 0.  1.
         11   -1    0    0    0    0 -0.00000000000E+00 -0.00000000000E+00 -0.12500000000E+03  0.12500000000E+03  0.00000000000E+00 0. -1.
         24    1    1    2    0    0  0.18096026529E+02 -0.43670987578E+01  0.93868239133E+02  0.12500000000E+03  0.80419002446E+02 0.  1.
        -24    1    1    2    0    0 -0.18096026529E+02  0.43670987578E+01 -0.93868239133E+02  0.12500000000E+03  0.80419002446E+02 0. -1.
</event>
<event>
 4    1  0.1599584E-001  0.1250000E+03  0.7546771E-02  0.1126479E+00
        -11   -1    0    0    0    0  0.00000000000E+00  0.00000000000E+00  0.12500000000E+03  0.12500000000E+03  0.00000000000E+00 0.  1.
         11   -1    0    0    0    0 -0.00000000000E+00 -0.00000000000E+00 -0.12500000000E+03  0.12500000000E+03  0.00000000000E+00 0. -1.
         24    1    1    2    0    0 -0.41342454521E+02  0.92011432686E+01  0.85813311685E+02  0.12500000000E+03  0.80419002446E+02 0.  1.
        -24    1    1    2    0    0  0.41342454521E+02 -0.92011432686E+01 -0.85813311685E+02  0.12500000000E+03  0.80419002446E+02 0. -1.
</event>
<event>
 4    1  0.1599584E-001  0.1250000E+03  0.7546771E-02  0.1126479E+00
        -11   -1    0    0    0    0  0.00000000000E+00  0.00000000000E+00  0.12500000000E+03  0.12500000000E+03  0.00000000000E+00 0.  1.
         11   -1    0    0    0    0 -0.00000000000E+00 -0.00000000000E+00 -0.12500000000E+03  0.12500000000E+03  0.00000000000E+00 0. -1.
         24    1    1    2    0    0 -0.46941635013E+02  0.96060974949E+01  0.82837128384E+02  0.12500000000E+03  0.80419002446E+02 0.  1.
        -24    1    1    2    0    0  0.46941635013E+02 -0.96060974949E+01 -0.82837128384E+02  0.12500000000E+03  0.80419002446E+02 0. -1.
</event>
<event>
 4    1  0.1599584E-001  0.1250000E+03  0.7546771E-02  0.1126479E+00
        -11   -1    0    0    0    0  0.00000000000E+00  0.00000000000E+00  0.12500000000E+03  0.12500000000E+03  0.00000000000E+00 0.  1.
         11   -1    0    0    0    0 -0.00000000000E+00 -0.00000000000E+00 -0.12500000000E+03  0.12500000000E+03  0.00000000000E+00 0. -1.
         24    1    1    2    0    0  0.59824558973E+01 -0.10880909549E+01  0.95502933594E+02  0.12500000000E+03  0.80419002446E+02 0.  1.
        -24    1    1    2    0    0 -0.59824558973E+01  0.10880909549E+01 -0.95502933594E+02  0.12500000000E+03  0.80419002446E+02 0. -1.
</event>
<event>
 4    1  0.1599584E-001  0.1250000E+03  0.7546771E-02  0.1126479E+00
        -11   -1    0    0    0    0  0.00000000000E+00  0.00000000000E+00  0.12500000000E+03  0.12500000000E+03  0.00000000000E+00 0.  1.
         11   -1    0    0    0    0 -0.00000000000E+00 -0.00000000000E+00 -0.12500000000E+03  0.12500000000E+03  0.00000000000E+00 0. -1.
         24    1    1    2    0    0  0.47010387441E+02  0.46130850296E+02  0.69424434958E+02  0.12500000000E+03  0.80419002446E+02 0.  0.
        -24    1    1    2    0    0 -0.47010387441E+02 -0.46130850296E+02 -0.69424434958E+02  0.12500000000E+03  0.80419002446E+02 0. -1.
</event>
<event>
 4    1  0.1599584E-001  0.1250000E+03  0.7546771E-02  0.1126479E+00
        -11   -1    0    0    0    0  0.00000000000E+00  0.00000000000E+00  0.12500000000E+03  0.12500000000E+03  0.00000000000E+00 0.  1.
         11   -1    0    0    0    0 -0.00000000000E+00 -0.00000000000E+00 -0.12500000000E+03  0.12500000000E+03  0.00000000000E+00 0. -1.
         24    1    1    2    0    0 -0.68337485267E+02  0.54831689765E+01  0.66766061820E+02  0.12500000000E+03  0.80419002446E+02 0.  1.
        -24    1    1    2    0    0  0.68337485267E+02 -0.54831689765E+01 -0.66766061820E+02  0.12500000000E+03  0.80419002446E+02 0. -1.
</event>
<event>
 4    1  0.1599584E-001  0.1250000E+03  0.7546771E-02  0.1126479E+00
        -11   -1    0    0    0    0  0.00000000000E+00  0.00000000000E+00  0.12500000000E+03  0.12500000000E+03  0.00000000000E+00 0.  1.
         11   -1    0    0    0    0 -0.00000000000E+00 -0.00000000000E+00 -0.12500000000E+03  0.12500000000E+03  0.00000000000E+00 0. -1.
         24    1    1    2    0    0  0.49746545249E+02 -0.10427709961E+02  0.81082230768E+02  0.12500000000E+03  0.80419002446E+02 0.  1.
        -24    1    1    2    0    0 -0.49746545249E+02  0.10427709961E+02 -0.81082230768E+02  0.12500000000E+03  0.80419002446E+02 0. -1.
</event>
<event>
 4    1  0.1599584E-001  0.1250000E+03  0.7546771E-02  0.1126479E+00
        -11   -1    0    0    0    0  0.00000000000E+00  0.00000000000E+00  0.12500000000E+03  0.12500000000E+03  0.00000000000E+00 0.  1.
         11   -1    0    0    0    0 -0.00000000000E+00 -0.00000000000E+00 -0.12500000000E+03  0.12500000000E+03  0.00000000000E+00 0. -1.
         24    1    1    2    0    0 -0.39140731982E+01  0.38009577323E+02  0.87736743206E+02  0.12500000000E+03  0.80419002446E+02 0.  1.
        -24    1    1    2    0    0  0.39140731982E+01 -0.38009577323E+02 -0.87736743206E+02  0.12500000000E+03  0.80419002446E+02 0. -1.
</event>
<event>
 4    1  0.1599584E-001  0.1250000E+03  0.7546771E-02  0.1126479E+00
        -11   -1    0    0    0    0  0.00000000000E+00  0.00000000000E+00  0.12500000000E+03  0.12500000000E+03  0.00000000000E+00 0.  1.
         11   -1    0    0    0    0 -0.00000000000E+00 -0.00000000000E+00 -0.12500000000E+03  0.12500000000E+03  0.00000000000E+00 0. -1.
         24    1    1    2    0    0 -0.33834557888E+02 -0.18746454775E+02  0.87530435687E+02  0.12500000000E+03  0.80419002446E+02 0.  1.
        -24    1    1    2    0    0  0.33834557888E+02  0.18746454775E+02 -0.87530435687E+02  0.12500000000E+03  0.80419002446E+02 0. -1.
</event>
<event>
 4    1  0.1599584E-001  0.1250000E+03  0.7546771E-02  0.1126479E+00
        -11   -1    0    0    0    0  0.00000000000E+00  0.00000000000E+00  0.12500000000E+03  0.12500000000E+03  0.00000000000E+00 0.  1.
         11   -1    0    0    0    0 -0.00000000000E+00 -0.00000000000E+00 -0.12500000000E+03  0.12500000000E+03  0.00000000000E+00 0. -1.
         24    1    1    2    0    0  0.16311971468E+02  0.47908729849E+01  0.94174047213E+02  0.12500000000E+03  0.80419002446E+02 0.  1.
        -24    1    1    2    0    0 -0.16311971468E+02 -0.47908729849E+01 -0.94174047213E+02  0.12500000000E+03  0.80419002446E+02 0. -1.
</event>
<event>
 4    1  0.1599584E-001  0.1250000E+03  0.7546771E-02  0.1126479E+00
        -11   -1    0    0    0    0  0.00000000000E+00  0.00000000000E+00  0.12500000000E+03  0.12500000000E+03  0.00000000000E+00 0.  1.
         11   -1    0    0    0    0 -0.00000000000E+00 -0.00000000000E+00 -0.12500000000E+03  0.12500000000E+03  0.00000000000E+00 0. -1.
         24    1    1    2    0    0  0.77331300211E+02  0.43947712429E+02  0.35302303402E+02  0.12500000000E+03  0.80419002446E+02 0.  1.
        -24    1    1    2    0    0 -0.77331300211E+02 -0.43947712429E+02 -0.35302303402E+02  0.12500000000E+03  0.80419002446E+02 0. -1.
</event>
<event>
 4    1  0.1599584E-001  0.1250000E+03  0.7546771E-02  0.1126479E+00
        -11   -1    0    0    0    0  0.00000000000E+00  0.00000000000E+00  0.12500000000E+03  0.12500000000E+03  0.00000000000E+00 0.  1.
         11   -1    0    0    0    0 -0.00000000000E+00 -0.00000000000E+00 -0.12500000000E+03  0.12500000000E+03  0.00000000000E+00 0. -1.
         24    1    1    2    0    0 -0.14917310472E+02  0.65497416128E+01  0.94299304232E+02  0.12500000000E+03  0.80419002446E+02 0.  0.
        -24    1    1    2    0    0  0.14917310472E+02 -0.65497416128E+01 -0.94299304232E+02  0.12500000000E+03  0.80419002446E+02 0. -1.
</event>
<event>
 4    1  0.1599584E-001  0.1250000E+03  0.7546771E-02  0.1126479E+00
        -11   -1    0    0    0    0  0.00000000000E+00  0.00000000000E+00  0.12500000000E+03  0.12500000000E+03  0.00000000000E+00 0.  1.
         11   -1    0    0    0    0 -0.00000000000E+00 -0.00000000000E+00 -0.12500000000E+03  0.12500000000E+03  0.00000000000E+00 0. -1.
         24    1    1    2    0    0 -0.42794740604E+02  0.57781385291E+02  0.63148283715E+02  0.12500000000E+03  0.80419002446E+02 0.  1.
        -24    1    1    2    0    0  0.42794740604E+02 -0.57781385291E+02 -0.63148283715E+02  0.12500000000E+03  0.80419002446E+02 0. -1.
</event>
<event>
 4    1  0.1599584E-001  0.1250000E+03  0.7546771E-02  0.1126479E+00
        -11   -1    0    0    0    0  0.00000000000E+00  0.00000000000E+00  0.12500000000E+03  0.12500000000E+03  0.00000000000E+00 0.  1.
         11   -1    0    0    0    0 -0.00000000000E+00 -0.00000000000E+00 -0.12500000000E+03  0.12500000000E+03  0.00000000000E+00 0. -1.
         24    1    1    2    0    0  0.23381531909E+02  0.28018636806E+02  0.88464930920E+02  0.12500000000E+03  0.80419002446E+02 0.  1.
        -24    1    1    2    0    0 -0.23381531909E+02 -0.28018636806E+02 -0.88464930920E+02  0.12500000000E+03  0.80419002446E+02 0. -1.
</event>
<event>
 4    1  0.1599584E-001  0.1250000E+03  0.7546771E-02  0.1126479E+00
        -11   -1    0    0    0    0  0.00000000000E+00  0.00000000000E+00  0.12500000000E+03  0.12500000000E+03  0.00000000000E+00 0.  1.
         11   -1    0    0    0    0 -0.00000000000E+00 -0.00000000000E+00 -0.12500000000E+03  0.12500000000E+03  0.00000000000E+00 0. -1.
         24    1    1    2    0    0 -0.31639940175E+02 -0.10539858518E+02  0.89697322222E+02  0.12500000000E+03  0.80419002446E+02 0.  1.
        -24    1    1    2    0    0  0.31639940175E+02  0.10539858518E+02 -0.89697322222E+02  0.12500000000E+03  0.80419002446E+02 0. -1.
</event>
<event>
 4    1  0.1599584E-001  0.1250000E+03  0.7546771E-02  0.1126479E+00
        -11   -1    0    0    0    0  0.00000000000E+00  0.00000000000E+00  0.12500000000E+03  0.12500000000E+03  0.00000000000E+00 0.  1.
         11   -1    0    0    0    0 -0.00000000000E+00 -0.00000000000E+00 -0.12500000000E+03  0.12500000000E+03  0.00000000000E+00 0. -1.
         24    1    1    2    0    0 -0.34651632278E+02 -0.73124332381E+01  0.88902062666E+02  0.12500000000E+03  0.80419002446E+02 0.  1.
        -24    1    1    2    0    0  0.34651632278E+02  0.73124332381E+01 -0.88902062666E+02  0.12500000000E+03  0.80419002446E+02 0. -1.
</event>
<event>
 4    1  0.1599584E-001  0.1250000E+03  0.7546771E-02  0.1126479E+00
        -11   -1    0    0    0    0  0.00000000000E+00  0.00000000000E+00  0.12500000000E+03  0.12500000000E+03  0.00000000000E+00 0.  1.
         11   -1    0    0    0    0 -0.00000000000E+00 -0.00000000000E+00 -0.12500000000E+03  0.12500000000E+03  0.00000000000E+00 0. -1.
         24    1    1    2    0    0 -0.60432295766E+02 -0.30599553048E+02  0.67597256064E+02  0.12500000000E+03  0.80419002446E+02 0.  1.
        -24    1    1    2    0    0  0.60432295766E+02  0.30599553048E+02 -0.67597256064E+02  0.12500000000E+03  0.80419002446E+02 0. -1.
</event>
<event>
 4    1  0.1599584E-001  0.1250000E+03  0.7546771E-02  0.1126479E+00
        -11   -1    0    0    0    0  0.00000000000E+00  0.00000000000E+00  0.12500000000E+03  0.12500000000E+03  0.00000000000E+00 0.  1.
         11   -1    0    0    0    0 -0.00000000000E+00 -0.00000000000E+00 -0.12500000000E+03  0.12500000000E+03  0.00000000000E+00 0. -1.
         24    1    1    2    0    0 -0.41537997163E+02 -0.28745746336E+02  0.81277677778E+02  0.12500000000E+03  0.80419002446E+02 0.  1.
        -24    1    1    2    0    0  0.41537997163E+02  0.28745746336E+02 -0.81277677778E+02  0.12500000000E+03  0.80419002446E+02 0. -1.
</event>
<event>
 4    1  0.1599584E-001  0.1250000E+03  0.7546771E-02  0.1126479E+00
        -11   -1    0    0    0    0  0.00000000000E+00  0.00000000000E+00  0.12500000000E+03  0.12500000000E+03  0.00000000000E+00 0.  1.
         11   -1    0    0    0    0 -0.00000000000E+00 -0.00000000000E+00 -0.12500000000E+03  0.12500000000E+03  0.00000000000E+00 0. -1.
         24    1    1    2    0    0  0.86441400039E+02  0.10245700415E+02  0.39757942955E+02  0.12500000000E+03  0.80419002446E+02 0. -1.
        -24    1    1    2    0    0 -0.86441400039E+02 -0.10245700415E+02 -0.39757942955E+02  0.12500000000E+03  0.80419002446E+02 0.  0.
</event>
<event>
 4    1  0.1599584E-001  0.1250000E+03  0.7546771E-02  0.1126479E+00
        -11   -1    0    0    0    0  0.00000000000E+00  0.00000000000E+00  0.12500000000E+03  0.12500000000E+03  0.00000000000E+00 0.  1.
         11   -1    0    0    0    0 -0.00000000000E+00 -0.00000000000E+00 -0.12500000000E+03  0.12500000000E+03  0.00000000000E+00 0. -1.
         24    1    1    2    0    0  0.12391913179E+02  0.92999260269E+02 -0.18851050972E+02  0.12500000000E+03  0.80419002446E+02 0.  0.
        -24    1    1    2    0    0 -0.12391913179E+02 -0.92999260269E+02  0.18851050972E+02  0.12500000000E+03  0.80419002446E+02 0. -1.
</event>
<event>
 4    1  0.1599584E-001  0.1250000E+03  0.7546771E-02  0.1126479E+00
        -11   -1    0    0    0    0  0.00000000000E+00  0.00000000000E+00  0.12500000000E+03  0.12500000000E+03  0.00000000000E+00 0.  1.
         11   -1    0    0    0    0 -0.00000000000E+00 -0.00000000000E+00 -0.12500000000E+03  0.12500000000E+03  0.00000000000E+00 0. -1.
         24    1    1    2    0    0 -0.13826991089E+02 -0.21859950340E+02  0.92134363482E+02  0.12500000000E+03  0.80419002446E+02 0.  1.
        -24    1    1    2    0    0  0.13826991089E+02  0.21859950340E+02 -0.92134363482E+02  0.12500000000E+03  0.80419002446E+02 0. -1.
</event>
<event>
 4    1  0.1599584E-001  0.1250000E+03  0.7546771E-02  0.1126479E+00
        -11   -1    0    0    0    0  0.00000000000E+00  0.00000000000E+00  0.12500000000E+03  0.12500000000E+03  0.00000000000E+00 0.  1.
         11   -1    0    0    0    0 -0.00000000000E+00 -0.00000000000E+00 -0.12500000000E+03  0.12500000000E+03  0.00000000000E+00 0. -1.
         24    1    1    2    0    0  0.52791313293E+02 -0.17005642550E+02  0.77985058876E+02  0.12500000000E+03  0.80419002446E+02 0.  1.
        -24    1    1    2    0    0 -0.52791313293E+02  0.17005642550E+02 -0.77985058876E+02  0.12500000000E+03  0.80419002446E+02 0. -1.
</event>
<event>
 4    1  0.1599584E-001  0.1250000E+03  0.7546771E-02  0.1126479E+00
        -11   -1    0    0    0    0  0.00000000000E+00  0.00000000000E+00  0.12500000000E+03  0.12500000000E+03  0.00000000000E+00 0.  1.
         11   -1    0    0    0    0 -0.00000000000E+00 -0.00000000000E+00 -0.12500000000E+03  0.12500000000E+03  0.00000000000E+00 0. -1.
         24    1    1    2    0    0  0.35100457237E+02  0.11698804638E+02  0.88254631139E+02  0.12500000000E+03  0.80419002446E+02 0.  1.
        -24    1    1    2    0    0 -0.35100457237E+02 -0.11698804638E+02 -0.88254631139E+02  0.12500000000E+03  0.80419002446E+02 0. -1.
</event>
<event>
 4    1  0.1599584E-001  0.1250000E+03  0.7546771E-02  0.1126479E+00
        -11   -1    0    0    0    0  0.00000000000E+00  0.00000000000E+00  0.12500000000E+03  0.12500000000E+03  0.00000000000E+00 0.  1.
         11   -1    0    0    0    0 -0.00000000000E+00 -0.00000000000E+00 -0.12500000000E+03  0.12500000000E+03  0.00000000000E+00 0. -1.
         24    1    1    2    0    0 -0.19413143174E+02  0.62992013825E+02  0.69375212519E+02  0.12500000000E+03  0.80419002446E+02 0.  1.
        -24    1    1    2    0    0  0.19413143174E+02 -0.62992013825E+02 -0.69375212519E+02  0.12500000000E+03  0.80419002446E+02 0. -1.
</event>
<event>
 4    1  0.1599584E-001  0.1250000E+03  0.7546771E-02  0.1126479E+00
        -11   -1    0    0    0    0  0.00000000000E+00  0.00000000000E+00  0.12500000000E+03  0.12500000000E+03  0.00000000000E+00 0.  1.
         11   -1    0    0    0    0 -0.00000000000E+00 -0.00000000000E+00 -0.12500000000E+03  0.12500000000E+03  0.00000000000E+00 0. -1.
         24    1    1    2    0    0  0.75440593114E+02 -0.53797288528E+02 -0.23923893981E+02  0.12500000000E+03  0.80419002446E+02 0.  0.
        -24    1    1    2    0    0 -0.75440593114E+02  0.53797288528E+02  0.23923893981E+02  0.12500000000E+03  0.80419002446E+02 0.  0.
</event>
<event>
 4    1  0.1599584E-001  0.1250000E+03  0.7546771E-02  0.1126479E+00
        -11   -1    0    0    0    0  0.00000000000E+00  0.00000000000E+00  0.12500000000E+03  0.12500000000E+03  0.00000000000E+00 0.  1.
         11   -1    0    0    0    0 -0.00000000000E+00 -0.00000000000E+00 -0.12500000000E+03  0.12500000000E+03  0.00000000000E+00 0. -1.
         24    1    1    2    0    0 -0.10689357304E+01  0.26639282456E+01  0.95653253517E+02  0.12500000000E+03  0.80419002446E+02 0.  1.
        -24    1    1    2    0    0  0.10689357304E+01 -0.26639282456E+01 -0.95653253517E+02  0.12500000000E+03  0.80419002446E+02 0.  0.
</event>
<event>
 4    1  0.1599584E-001  0.1250000E+03  0.7546771E-02  0.1126479E+00
        -11   -1    0    0    0    0  0.00000000000E+00  0.00000000000E+00  0.12500000000E+03  0.12500000000E+03  0.00000000000E+00 0.  1.
         11   -1    0    0    0    0 -0.00000000000E+00 -0.00000000000E+00 -0.12500000000E+03  0.12500000000E+03  0.00000000000E+00 0. -1.
         24    1    1    2    0    0  0.19785114127E+02 -0.76290166888E+02  0.54278391104E+02  0.12500000000E+03  0.80419002446E+02 0.  0.
        -24    1    1    2    0    0 -0.19785114127E+02  0.76290166888E+02 -0.54278391104E+02  0.12500000000E+03  0.80419002446E+02 0. -1.
</event>
<event>
 4    1  0.1599584E-001  0.1250000E+03  0.7546771E-02  0.1126479E+00
        -11   -1    0    0    0    0  0.00000000000E+00  0.00000000000E+00  0.12500000000E+03  0.12500000000E+03  0.00000000000E+00 0.  1.
         11   -1    0    0    0    0 -0.00000000000E+00 -0.00000000000E+00 -0.12500000000E+03  0.12500000000E+03  0.00000000000E+00 0. -1.
         24    1    1    2    0    0  0.89574713657E+02 -0.33110120005E+02  0.61542401791E+01  0.12500000000E+03  0.80419002446E+02 0. -1.
        -24    1    1    2    0    0 -0.89574713657E+02  0.33110120005E+02 -0.61542401791E+01  0.12500000000E+03  0.80419002446E+02 0.  1.
</event>
<event>
 4    1  0.1599584E-001  0.1250000E+03  0.7546771E-02  0.1126479E+00
        -11   -1    0    0    0    0  0.00000000000E+00  0.00000000000E+00  0.12500000000E+03  0.12500000000E+03  0.00000000000E+00 0.  1.
         11   -1    0    0    0    0 -0.00000000000E+00 -0.00000000000E+00 -0.12500000000E+03  0.12500000000E+03  0.00000000000E+00 0. -1.
         24    1    1    2    0    0 -0.73359390199E+02  0.10652983008E+02  0.60520226935E+02  0.12500000000E+03  0.80419002446E+02 0.  1.
        -24    1    1    2    0    0  0.73359390199E+02 -0.10652983008E+02 -0.60520226935E+02  0.12500000000E+03  0.80419002446E+02 0. -1.
</event>
<event>
 4    1  0.1599584E-001  0.1250000E+03  0.7546771E-02  0.1126479E+00
        -11   -1    0    0    0    0  0.00000000000E+00  0.00000000000E+00  0.12500000000E+03  0.12500000000E+03  0.00000000000E+00 0.  1.
         11   -1    0    0    0    0 -0.00000000000E+00 -0.00000000000E+00 -0.12500000000E+03  0.12500000000E+03  0.00000000000E+00 0. -1.
         24    1    1    2    0    0 -0.24977586776E+02 -0.44152197490E+02  0.81144856037E+02  0.12500000000E+03  0.80419002446E+02 0.  1.
        -24    1    1    2    0    0  0.24977586776E+02  0.44152197490E+02 -0.81144856037E+02  0.12500000000E+03  0.80419002446E+02 0. -1.
</event>
<event>
 4    1  0.1599584E-001  0.1250000E+03  0.7546771E-02  0.1126479E+00
        -11   -1    0    0    0    0  0.00000000000E+00  0.00000000000E+00  0.12500000000E+03  0.12500000000E+03  0.00000000000E+00 0.  1.
         11   -1    0    0    0    0 -0.00000000000E+00 -0.00000000000E+00 -0.12500000000E+03  0.12500000000E+03  0.00000000000E+00 0. -1.
         24    1    1    2    0    0  0.14798546182E+02  0.94505284131E+02 -0.27456051781E+01  0.12500000000E+03  0.80419002446E+02 0.  0.
        -24    1    1    2    0    0 -0.14798546182E+02 -0.94505284131E+02  0.27456051781E+01  0.12500000000E+03  0.80419002446E+02 0. -1.
</event>
<event>
 4    1  0.1599584E-001  0.1250000E+03  0.7546771E-02  0.1126479E+00
        -11   -1    0    0    0    0  0.00000000000E+00  0.00000000000E+00  0.12500000000E+03  0.12500000000E+03  0.00000000000E+00 0.  1.
         11   -1    0    0    0    0 -0.00000000000E+00 -0.00000000000E+00 -0.12500000000E+03  0.12500000000E+03  0.00000000000E+00 0. -1.
         24    1    1    2    0    0  0.13504472798E+02 -0.10692751100E+02  0.94133300877E+02  0.12500000000E+03  0.80419002446E+02 0.  1.
        -24    1    1    2    0    0 -0.13504472798E+02  0.10692751100E+02 -0.94133300877E+02  0.12500000000E+03  0.80419002446E+02 0. -1.
</event>
<event>
 4    1  0.1599584E-001  0.1250000E+03  0.7546771E-02  0.1126479E+00
        -11   -1    0    0    0    0  0.00000000000E+00  0.00000000000E+00  0.12500000000E+03  0.12500000000E+03  0.00000000000E+00 0.  1.
         11   -1    0    0    0    0 -0.00000000000E+00 -0.00000000000E+00 -0.12500000000E+03  0.12500000000E+03  0.00000000000E+00 0. -1.
         24    1    1    2    0    0 -0.75207975599E+01 -0.23016971926E+02  0.92582075225E+02  0.12500000000E+03  0.80419002446E+02 0.  1.
        -24    1    1    2    0    0  0.75207975599E+01  0.23016971926E+02 -0.92582075225E+02  0.12500000000E+03  0.80419002446E+02 0. -1.
</event>
<event>
 4    1  0.1599584E-001  0.1250000E+03  0.7546771E-02  0.1126479E+00
        -11   -1    0    0    0    0  0.00000000000E+00  0.00000000000E+00  0.12500000000E+03  0.12500000000E+03  0.00000000000E+00 0.  1.
         11   -1    0    0    0    0 -0.00000000000E+00 -0.00000000000E+00 -0.12500000000E+03  0.12500000000E+03  0.00000000000E+00 0. -1.
         24    1    1    2    0    0  0.49022470655E+02  0.67644720073E+02  0.46677331359E+02  0.12500000000E+03  0.80419002446E+02 0.  1.
        -24    1    1    2    0    0 -0.49022470655E+02 -0.67644720073E+02 -0.46677331359E+02  0.12500000000E+03  0.80419002446E+02 0. -1.
</event>
<event>
 4    1  0.1599584E-001  0.1250000E+03  0.7546771E-02  0.1126479E+00
        -11   -1    0    0    0    0  0.00000000000E+00  0.00000000000E+00  0.12500000000E+03  0.12500000000E+03  0.00000000000E+00 0.  1.
         11   -1    0    0    0    0 -0.00000000000E+00 -0.00000000000E+00 -0.12500000000E+03  0.12500000000E+03  0.00000000000E+00 0. -1.
         24    1    1    2    0    0  0.46997699753E+02  0.73441287437E+02  0.39438275357E+02  0.12500000000E+03  0.80419002446E+02 0.  1.
        -24    1    1    2    0    0 -0.46997699753E+02 -0.73441287437E+02 -0.39438275357E+02  0.12500000000E+03  0.80419002446E+02 0. -1.
</event>
<event>
 4    1  0.1599584E-001  0.1250000E+03  0.7546771E-02  0.1126479E+00
        -11   -1    0    0    0    0  0.00000000000E+00  0.00000000000E+00  0.12500000000E+03  0.12500000000E+03  0.00000000000E+00 0.  1.
         11   -1    0    0    0    0 -0.00000000000E+00 -0.00000000000E+00 -0.12500000000E+03  0.12500000000E+03  0.00000000000E+00 0. -1.
         24    1    1    2    0    0  0.14228212799E+02 -0.14360976443E+02  0.93536647159E+02  0.12500000000E+03  0.80419002446E+02 0.  1.
        -24    1    1    2    0    0 -0.14228212799E+02  0.14360976443E+02 -0.93536647159E+02  0.12500000000E+03  0.80419002446E+02 0. -1.
</event>
<event>
 4    1  0.1599584E-001  0.1250000E+03  0.7546771E-02  0.1126479E+00
        -11   -1    0    0    0    0  0.00000000000E+00  0.00000000000E+00  0.12500000000E+03  0.12500000000E+03  0.00000000000E+00 0.  1.
         11   -1    0    0    0    0 -0.00000000000E+00 -0.00000000000E+00 -0.12500000000E+03  0.12500000000E+03  0.00000000000E+00 0. -1.
         24    1    1    2    0    0  0.21502097058E+02 -0.44860078204E+02  0.81749723249E+02  0.12500000000E+03  0.80419002446E+02 0.  1.
        -24    1    1    2    0    0 -0.21502097058E+02  0.44860078204E+02 -0.81749723249E+02  0.12500000000E+03  0.80419002446E+02 0. -1.
</event>
<event>
 4    1  0.1599584E-001  0.1250000E+03  0.7546771E-02  0.1126479E+00
        -11   -1    0    0    0    0  0.00000000000E+00  0.00000000000E+00  0.12500000000E+03  0.12500000000E+03  0.00000000000E+00 0.  1.
         11   -1    0    0    0    0 -0.00000000000E+00 -0.00000000000E+00 -0.12500000000E+03  0.12500000000E+03  0.00000000000E+00 0. -1.
         24    1    1    2    0    0 -0.61917859033E+02  0.44607025262E+01  0.72829011468E+02  0.12500000000E+03  0.80419002446E+02 0.  1.
        -24    1    1    2    0    0  0.61917859033E+02 -0.44607025262E+01 -0.72829011468E+02  0.12500000000E+03  0.80419002446E+02 0. -1.
</event>
<event>
 4    1  0.1599584E-001  0.1250000E+03  0.7546771E-02  0.1126479E+00
        -11   -1    0    0    0    0  0.00000000000E+00  0.00000000000E+00  0.12500000000E+03  0.12500000000E+03  0.00000000000E+00 0.  1.
         11   -1    0    0    0    0 -0.00000000000E+00 -0.00000000000E+00 -0.12500000000E+03  0.12500000000E+03  0.00000000000E+00 0. -1.
         24    1    1    2    0    0  0.42764805714E+01 -0.40742402182E+02  0.86484405669E+02  0.12500000000E+03  0.80419002446E+02 0. -1.
        -24    1    1    2    0    0 -0.42764805714E+01  0.40742402182E+02 -0.86484405669E+02  0.12500000000E+03  0.80419002446E+02 0. -1.
</event>
<event>
 4    1  0.1599584E-001  0.1250000E+03  0.7546771E-02  0.1126479E+00
        -11   -1    0    0    0    0  0.00000000000E+00  0.00000000000E+00  0.12500000000E+03  0.12500000000E+03  0.00000000000E+00 0.  1.
         11   -1    0    0    0    0 -0.00000000000E+00 -0.00000000000E+00 -0.12500000000E+03  0.12500000000E+03  0.00000000000E+00 0. -1.
         24    1    1    2    0    0 -0.74693732986E+02  0.52675536490E+02  0.28353450473E+02  0.12500000000E+03  0.80419002446E+02 0.  0.
        -24    1    1    2    0    0  0.74693732986E+02 -0.52675536490E+02 -0.28353450473E+02  0.12500000000E+03  0.80419002446E+02 0. -1.
</event>
<event>
 4    1  0.1599584E-001  0.1250000E+03  0.7546771E-02  0.1126479E+00
        -11   -1    0    0    0    0  0.00000000000E+00  0.00000000000E+00  0.12500000000E+03  0.12500000000E+03  0.00000000000E+00 0.  1.
         11   -1    0    0    0    0 -0.00000000000E+00 -0.00000000000E+00 -0.12500000000E+03  0.12500000000E+03  0.00000000000E+00 0. -1.
         24    1    1    2    0    0  0.51191752862E+02 -0.75414543616E+02 -0.29151931251E+02  0.12500000000E+03  0.80419002446E+02 0.  1.
        -24    1    1    2    0    0 -0.51191752862E+02  0.75414543616E+02  0.29151931251E+02  0.12500000000E+03  0.80419002446E+02 0.  0.
</event>
<event>
 4    1  0.1599584E-001  0.1250000E+03  0.7546771E-02  0.1126479E+00
        -11   -1    0    0    0    0  0.00000000000E+00  0.00000000000E+00  0.12500000000E+03  0.12500000000E+03  0.00000000000E+00 0.  1.
         11   -1    0    0    0    0 -0.00000000000E+00 -0.00000000000E+00 -0.12500000000E+03  0.12500000000E+03  0.00000000000E+00 0. -1.
         24    1    1    2    0    0 -0.55039560200E+02 -0.64931634021E+02  0.43730009856E+02  0.12500000000E+03  0.80419002446E+02 0.  1.
        -24    1    1    2    0    0  0.55039560200E+02  0.64931634021E+02 -0.43730009856E+02  0.12500000000E+03  0.80419002446E+02 0. -1.
</event>
<event>
 4    1  0.1599584E-001  0.1250000E+03  0.7546771E-02  0.1126479E+00
        -11   -1    0    0    0    0  0.00000000000E+00  0.00000000000E+00  0.12500000000E+03  0.12500000000E+03  0.00000000000E+00 0.  1.
         11   -1    0    0    0    0 -0.00000000000E+00 -0.00000000000E+00 -0.12500000000E+03  0.12500000000E+03  0.00000000000E+00 0. -1.
         24    1    1    2    0    0  0.75198560311E+02  0.25721532318E+02  0.53304440228E+02  0.12500000000E+03  0.80419002446E+02 0.  1.
        -24    1    1    2    0    0 -0.75198560311E+02 -0.25721532318E+02 -0.53304440228E+02  0.12500000000E+03  0.80419002446E+02 0.  0.
</event>
<event>
 4    1  0.1599584E-001  0.1250000E+03  0.7546771E-02  0.1126479E+00
        -11   -1    0    0    0    0  0.00000000000E+00  0.00000000000E+00  0.12500000000E+03  0.12500000000E+03  0.00000000000E+00 0.  1.
         11   -1    0    0    0    0 -0.00000000000E+00 -0.00000000000E+00 -0.12500000000E+03  0.12500000000E+03  0.00000000000E+00 0. -1.
         24    1    1    2    0    0  0.50713645416E+02 -0.65686832973E+02  0.47656585991E+02  0.12500000000E+03  0.80419002446E+02 0.  1.
        -24    1    1    2    0    0 -0.50713645416E+02  0.65686832973E+02 -0.47656585991E+02  0.12500000000E+03  0.80419002446E+02 0. -1.
</event>
<event>
 4    1  0.1599584E-001  0.1250000E+03  0.7546771E-02  0.1126479E+00
        -11   -1    0    0    0    0  0.00000000000E+00  0.00000000000E+00  0.12500000000E+03  0.12500000000E+03  0.00000000000E+00 0.  1.
         11   -1    0    0    0    0 -0.00000000000E+00 -0.00000000000E+00 -0.12500000000E+03  0.12500000000E+03  0.00000000000E+00 0. -1.
         24    1    1    2    0    0  0.87929106540E+02  0.21267158893E+02  0.31208399853E+02  0.12500000000E+03  0.80419002446E+02 0.  1.
        -24    1    1    2    0    0 -0.87929106540E+02 -0.21267158893E+02 -0.31208399853E+02  0.12500000000E+03  0.80419002446E+02 0. -1.
</event>
<event>
 4    1  0.1599584E-001  0.1250000E+03  0.7546771E-02  0.1126479E+00
        -11   -1    0    0    0    0  0.00000000000E+00  0.00000000000E+00  0.12500000000E+03  0.12500000000E+03  0.00000000000E+00 0.  1.
         11   -1    0    0    0    0 -0.00000000000E+00 -0.00000000000E+00 -0.12500000000E+03  0.12500000000E+03  0.00000000000E+00 0. -1.
         24    1    1    2    0    0  0.73209868106E+02  0.61607775151E+02 -0.16066419941E+01  0.12500000000E+03  0.80419002446E+02 0. -1.
        -24    1    1    2    0    0 -0.73209868106E+02 -0.61607775151E+02  0.16066419941E+01  0.12500000000E+03  0.80419002446E+02 0.  1.
</event>
<event>
 4    1  0.1599584E-001  0.1250000E+03  0.7546771E-02  0.1126479E+00
        -11   -1    0    0    0    0  0.00000000000E+00  0.00000000000E+00  0.12500000000E+03  0.12500000000E+03  0.00000000000E+00 0.  1.
         11   -1    0    0    0    0 -0.00000000000E+00 -0.00000000000E+00 -0.12500000000E+03  0.12500000000E+03  0.00000000000E+00 0. -1.
         24    1    1    2    0    0 -0.94439120974E+00  0.26256951996E+02  0.92018827654E+02  0.12500000000E+03  0.80419002446E+02 0.  1.
        -24    1    1    2    0    0  0.94439120974E+00 -0.26256951996E+02 -0.92018827654E+02  0.12500000000E+03  0.80419002446E+02 0. -1.
</event>
<event>
 4    1  0.1599584E-001  0.1250000E+03  0.7546771E-02  0.1126479E+00
        -11   -1    0    0    0    0  0.00000000000E+00  0.00000000000E+00  0.12500000000E+03  0.12500000000E+03  0.00000000000E+00 0.  1.
         11   -1    0    0    0    0 -0.00000000000E+00 -0.00000000000E+00 -0.12500000000E+03  0.12500000000E+03  0.00000000000E+00 0. -1.
         24    1    1    2    0    0 -0.23054735482E+02 -0.74402489374E+02  0.55592560586E+02  0.12500000000E+03  0.80419002446E+02 0.  1.
        -24    1    1    2    0    0  0.23054735482E+02  0.74402489374E+02 -0.55592560586E+02  0.12500000000E+03  0.80419002446E+02 0.  0.
</event>
<event>
 4    1  0.1599584E-001  0.1250000E+03  0.7546771E-02  0.1126479E+00
        -11   -1    0    0    0    0  0.00000000000E+00  0.00000000000E+00  0.12500000000E+03  0.12500000000E+03  0.00000000000E+00 0.  1.
         11   -1    0    0    0    0 -0.00000000000E+00 -0.00000000000E+00 -0.12500000000E+03  0.12500000000E+03  0.00000000000E+00 0. -1.
         24    1    1    2    0    0 -0.29700648852E+02  0.25183649356E+02  0.87415326508E+02  0.12500000000E+03  0.80419002446E+02 0.  1.
        -24    1    1    2    0    0  0.29700648852E+02 -0.25183649356E+02 -0.87415326508E+02  0.12500000000E+03  0.80419002446E+02 0. -1.
</event>
<event>
 4    1  0.1599584E-001  0.1250000E+03  0.7546771E-02  0.1126479E+00
        -11   -1    0    0    0    0  0.00000000000E+00  0.00000000000E+00  0.12500000000E+03  0.12500000000E+03  0.00000000000E+00 0.  1.
         11   -1    0    0    0    0 -0.00000000000E+00 -0.00000000000E+00 -0.12500000000E+03  0.12500000000E+03  0.00000000000E+00 0. -1.
         24    1    1    2    0    0 -0.60861319861E+02 -0.20557355644E+02 -0.70930098825E+02  0.12500000000E+03  0.80419002446E+02 0. -1.
        -24    1    1    2    0    0  0.60861319861E+02  0.20557355644E+02  0.70930098825E+02  0.12500000000E+03  0.80419002446E+02 0.  1.
</event>
<event>
 4    1  0.1599584E-001  0.1250000E+03  0.7546771E-02  0.1126479E+00
        -11   -1    0    0    0    0  0.00000000000E+00  0.00000000000E+00  0.12500000000E+03  0.12500000000E+03  0.00000000000E+00 0.  1.
         11   -1    0    0    0    0 -0.00000000000E+00 -0.00000000000E+00 -0.12500000000E+03  0.12500000000E+03  0.00000000000E+00 0. -1.
         24    1    1    2    0    0  0.74539283343E+02 -0.16457013220E+02  0.57713481963E+02  0.12500000000E+03  0.80419002446E+02 0.  1.
        -24    1    1    2    0    0 -0.74539283343E+02  0.16457013220E+02 -0.57713481963E+02  0.12500000000E+03  0.80419002446E+02 0. -1.
</event>
<event>
 4    1  0.1599584E-001  0.1250000E+03  0.7546771E-02  0.1126479E+00
        -11   -1    0    0    0    0  0.00000000000E+00  0.00000000000E+00  0.12500000000E+03  0.12500000000E+03  0.00000000000E+00 0.  1.
         11   -1    0    0    0    0 -0.00000000000E+00 -0.00000000000E+00 -0.12500000000E+03  0.12500000000E+03  0.00000000000E+00 0. -1.
         24    1    1    2    0    0 -0.28356078911E+02  0.47270397266E+02  0.78225484190E+02  0.12500000000E+03  0.80419002446E+02 0.  1.
        -24    1    1    2    0    0  0.28356078911E+02 -0.47270397266E+02 -0.78225484190E+02  0.12500000000E+03  0.80419002446E+02 0. -1.
</event>
<event>
 4    1  0.1599584E-001  0.1250000E+03  0.7546771E-02  0.1126479E+00
        -11   -1    0    0    0    0  0.00000000000E+00  0.00000000000E+00  0.12500000000E+03  0.12500000000E+03  0.00000000000E+00 0.  1.
         11   -1    0    0    0    0 -0.00000000000E+00 -0.00000000000E+00 -0.12500000000E+03  0.12500000000E+03  0.00000000000E+00 0. -1.
         24    1    1    2    0    0  0.81136360478E+02  0.33318961174E+02 -0.38269072111E+02  0.12500000000E+03  0.80419002446E+02 0.  1.
        -24    1    1    2    0    0 -0.81136360478E+02 -0.33318961174E+02  0.38269072111E+02  0.12500000000E+03  0.80419002446E+02 0. -1.
</event>
<event>
 4    1  0.1599584E-001  0.1250000E+03  0.7546771E-02  0.1126479E+00
        -11   -1    0    0    0    0  0.00000000000E+00  0.00000000000E+00  0.12500000000E+03  0.12500000000E+03  0.00000000000E+00 0.  1.
         11   -1    0    0    0    0 -0.00000000000E+00 -0.00000000000E+00 -0.12500000000E+03  0.12500000000E+03  0.00000000000E+00 0. -1.
         24    1    1    2    0    0  0.24404798937E+02 -0.17099122104E+02  0.90938494917E+02  0.12500000000E+03  0.80419002446E+02 0.  1.
        -24    1    1    2    0    0 -0.24404798937E+02  0.17099122104E+02 -0.90938494917E+02  0.12500000000E+03  0.80419002446E+02 0. -1.
</event>
<event>
 4    1  0.1599584E-001  0.1250000E+03  0.7546771E-02  0.1126479E+00
        -11   -1    0    0    0    0  0.00000000000E+00  0.00000000000E+00  0.12500000000E+03  0.12500000000E+03  0.00000000000E+00 0.  1.
         11   -1    0    0    0    0 -0.00000000000E+00 -0.00000000000E+00 -0.12500000000E+03  0.12500000000E+03  0.00000000000E+00 0. -1.
         24    1    1    2    0    0 -0.47930136270E+02  0.22888992530E+02  0.79602638799E+02  0.12500000000E+03  0.80419002446E+02 0.  1.
        -24    1    1    2    0    0  0.47930136270E+02 -0.22888992530E+02 -0.79602638799E+02  0.12500000000E+03  0.80419002446E+02 0. -1.
</event>
<event>
 4    1  0.1599584E-001  0.1250000E+03  0.7546771E-02  0.1126479E+00
        -11   -1    0    0    0    0  0.00000000000E+00  0.00000000000E+00  0.12500000000E+03  0.12500000000E+03  0.00000000000E+00 0.  1.
         11   -1    0    0    0    0 -0.00000000000E+00 -0.00000000000E+00 -0.12500000000E+03  0.12500000000E+03  0.00000000000E+00 0. -1.
         24    1    1    2    0    0  0.44995818952E+02 -0.39217790546E+02  0.74800569698E+02  0.12500000000E+03  0.80419002446E+02 0. -1.
        -24    1    1    2    0    0 -0.44995818952E+02  0.39217790546E+02 -0.74800569698E+02  0.12500000000E+03  0.80419002446E+02 0. -1.
</event>
<event>
 4    1  0.1599584E-001  0.1250000E+03  0.7546771E-02  0.1126479E+00
        -11   -1    0    0    0    0  0.00000000000E+00  0.00000000000E+00  0.12500000000E+03  0.12500000000E+03  0.00000000000E+00 0.  1.
         11   -1    0    0    0    0 -0.00000000000E+00 -0.00000000000E+00 -0.12500000000E+03  0.12500000000E+03  0.00000000000E+00 0. -1.
         24    1    1    2    0    0 -0.15666643770E+02 -0.66302353301E+02  0.67203707229E+02  0.12500000000E+03  0.80419002446E+02 0.  1.
        -24    1    1    2    0    0  0.15666643770E+02  0.66302353301E+02 -0.67203707229E+02  0.12500000000E+03  0.80419002446E+02 0. -1.
</event>
<event>
 4    1  0.1599584E-001  0.1250000E+03  0.7546771E-02  0.1126479E+00
        -11   -1    0    0    0    0  0.00000000000E+00  0.00000000000E+00  0.12500000000E+03  0.12500000000E+03  0.00000000000E+00 0.  1.
         11   -1    0    0    0    0 -0.00000000000E+00 -0.00000000000E+00 -0.12500000000E+03  0.12500000000E+03  0.00000000000E+00 0. -1.
         24    1    1    2    0    0 -0.18262094889E+02 -0.74646906310E+02  0.57027355841E+02  0.12500000000E+03  0.80419002446E+02 0.  1.
        -24    1    1    2    0    0  0.18262094889E+02  0.74646906310E+02 -0.57027355841E+02  0.12500000000E+03  0.80419002446E+02 0. -1.
</event>
<event>
 4    1  0.1599584E-001  0.1250000E+03  0.7546771E-02  0.1126479E+00
        -11   -1    0    0    0    0  0.00000000000E+00  0.00000000000E+00  0.12500000000E+03  0.12500000000E+03  0.00000000000E+00 0.  1.
         11   -1    0    0    0    0 -0.00000000000E+00 -0.00000000000E+00 -0.12500000000E+03  0.12500000000E+03  0.00000000000E+00 0. -1.
         24    1    1    2    0    0  0.34827297678E+02  0.87060985320E+02  0.19110944960E+02  0.12500000000E+03  0.80419002446E+02 0. -1.
        -24    1    1    2    0    0 -0.34827297678E+02 -0.87060985320E+02 -0.19110944960E+02  0.12500000000E+03  0.80419002446E+02 0.  1.
</event>
<event>
 4    1  0.1599584E-001  0.1250000E+03  0.7546771E-02  0.1126479E+00
        -11   -1    0    0    0    0  0.00000000000E+00  0.00000000000E+00  0.12500000000E+03  0.12500000000E+03  0.00000000000E+00 0.  1.
         11   -1    0    0    0    0 -0.00000000000E+00 -0.00000000000E+00 -0.12500000000E+03  0.12500000000E+03  0.00000000000E+00 0. -1.
         24    1    1    2    0    0 -0.42215993624E+02 -0.54341231698E+02  0.66502815471E+02  0.12500000000E+03  0.80419002446E+02 0.  1.
        -24    1    1    2    0    0  0.42215993624E+02  0.54341231698E+02 -0.66502815471E+02  0.12500000000E+03  0.80419002446E+02 0. -1.
</event>
<event>
 4    1  0.1599584E-001  0.1250000E+03  0.7546771E-02  0.1126479E+00
        -11   -1    0    0    0    0  0.00000000000E+00  0.00000000000E+00  0.12500000000E+03  0.12500000000E+03  0.00000000000E+00 0.  1.
         11   -1    0    0    0    0 -0.00000000000E+00 -0.00000000000E+00 -0.12500000000E+03  0.12500000000E+03  0.00000000000E+00 0. -1.
         24    1    1    2    0    0  0.26375449326E+02 -0.82636708395E+01  0.91617855589E+02  0.12500000000E+03  0.80419002446E+02 0.  1.
        -24    1    1    2    0    0 -0.26375449326E+02  0.82636708395E+01 -0.91617855589E+02  0.12500000000E+03  0.80419002446E+02 0. -1.
</event>
<event>
 4    1  0.1599584E-001  0.1250000E+03  0.7546771E-02  0.1126479E+00
        -11   -1    0    0    0    0  0.00000000000E+00  0.00000000000E+00  0.12500000000E+03  0.12500000000E+03  0.00000000000E+00 0.  1.
         11   -1    0    0    0    0 -0.00000000000E+00 -0.00000000000E+00 -0.12500000000E+03  0.12500000000E+03  0.00000000000E+00 0. -1.
         24    1    1    2    0    0 -0.44654836284E+02 -0.84104810701E+02  0.94926528980E+01  0.12500000000E+03  0.80419002446E+02 0.  1.
        -24    1    1    2    0    0  0.44654836284E+02  0.84104810701E+02 -0.94926528980E+01  0.12500000000E+03  0.80419002446E+02 0. -1.
</event>
<event>
 4    1  0.1599584E-001  0.1250000E+03  0.7546771E-02  0.1126479E+00
        -11   -1    0    0    0    0  0.00000000000E+00  0.00000000000E+00  0.12500000000E+03  0.12500000000E+03  0.00000000000E+00 0.  1.
         11   -1    0    0    0    0 -0.00000000000E+00 -0.00000000000E+00 -0.12500000000E+03  0.12500000000E+03  0.00000000000E+00 0. -1.
         24    1    1    2    0    0  0.42031944404E+02 -0.20825420607E+02  0.83411039748E+02  0.12500000000E+03  0.80419002446E+02 0.  1.
        -24    1    1    2    0    0 -0.42031944404E+02  0.20825420607E+02 -0.83411039748E+02  0.12500000000E+03  0.80419002446E+02 0. -1.
</event>
<event>
 4    1  0.1599584E-001  0.1250000E+03  0.7546771E-02  0.1126479E+00
        -11   -1    0    0    0    0  0.00000000000E+00  0.00000000000E+00  0.12500000000E+03  0.12500000000E+03  0.00000000000E+00 0.  1.
         11   -1    0    0    0    0 -0.00000000000E+00 -0.00000000000E+00 -0.12500000000E+03  0.12500000000E+03  0.00000000000E+00 0. -1.
         24    1    1    2    0    0  0.21049121118E+02  0.81469489465E+02  0.45578951634E+02  0.12500000000E+03  0.80419002446E+02 0.  0.
        -24    1    1    2    0    0 -0.21049121118E+02 -0.81469489465E+02 -0.45578951634E+02  0.12500000000E+03  0.80419002446E+02 0. -1.
</event>
<event>
 4    1  0.1599584E-001  0.1250000E+03  0.7546771E-02  0.1126479E+00
        -11   -1    0    0    0    0  0.00000000000E+00  0.00000000000E+00  0.12500000000E+03  0.12500000000E+03  0.00000000000E+00 0.  1.
         11   -1    0    0    0    0 -0.00000000000E+00 -0.00000000000E+00 -0.12500000000E+03  0.12500000000E+03  0.00000000000E+00 0. -1.
         24    1    1    2    0    0  0.61409955904E+02 -0.26191222642E+02  0.68561076553E+02  0.12500000000E+03  0.80419002446E+02 0.  1.
        -24    1    1    2    0    0 -0.61409955904E+02  0.26191222642E+02 -0.68561076553E+02  0.12500000000E+03  0.80419002446E+02 0.  0.
</event>
<event>
 4    1  0.1599584E-001  0.1250000E+03  0.7546771E-02  0.1126479E+00
        -11   -1    0    0    0    0  0.00000000000E+00  0.00000000000E+00  0.12500000000E+03  0.12500000000E+03  0.00000000000E+00 0.  1.
         11   -1    0    0    0    0 -0.00000000000E+00 -0.00000000000E+00 -0.12500000000E+03  0.12500000000E+03  0.00000000000E+00 0. -1.
         24    1    1    2    0    0 -0.34852285364E+01  0.87023605341E+02  0.39655130074E+02  0.12500000000E+03  0.80419002446E+02 0.  1.
        -24    1    1    2    0    0  0.34852285364E+01 -0.87023605341E+02 -0.39655130074E+02  0.12500000000E+03  0.80419002446E+02 0. -1.
</event>
<event>
 4    1  0.1599584E-001  0.1250000E+03  0.7546771E-02  0.1126479E+00
        -11   -1    0    0    0    0  0.00000000000E+00  0.00000000000E+00  0.12500000000E+03  0.12500000000E+03  0.00000000000E+00 0.  1.
         11   -1    0    0    0    0 -0.00000000000E+00 -0.00000000000E+00 -0.12500000000E+03  0.12500000000E+03  0.00000000000E+00 0. -1.
         24    1    1    2    0    0  0.35156727653E+02  0.50435149322E+02  0.73335422950E+02  0.12500000000E+03  0.80419002446E+02 0.  1.
        -24    1    1    2    0    0 -0.35156727653E+02 -0.50435149322E+02 -0.73335422950E+02  0.12500000000E+03  0.80419002446E+02 0. -1.
</event>
<event>
 4    1  0.1599584E-001  0.1250000E+03  0.7546771E-02  0.1126479E+00
        -11   -1    0    0    0    0  0.00000000000E+00  0.00000000000E+00  0.12500000000E+03  0.12500000000E+03  0.00000000000E+00 0.  1.
         11   -1    0    0    0    0 -0.00000000000E+00 -0.00000000000E+00 -0.12500000000E+03  0.12500000000E+03  0.00000000000E+00 0. -1.
         24    1    1    2    0    0 -0.48568419186E+02 -0.52519054615E+02  0.63566041294E+02  0.12500000000E+03  0.80419002446E+02 0.  1.
        -24    1    1    2    0    0  0.48568419186E+02  0.52519054615E+02 -0.63566041294E+02  0.12500000000E+03  0.80419002446E+02 0. -1.
</event>
<event>
 4    1  0.1599584E-001  0.1250000E+03  0.7546771E-02  0.1126479E+00
        -11   -1    0    0    0    0  0.00000000000E+00  0.00000000000E+00  0.12500000000E+03  0.12500000000E+03  0.00000000000E+00 0.  1.
         11   -1    0    0    0    0 -0.00000000000E+00 -0.00000000000E+00 -0.12500000000E+03  0.12500000000E+03  0.00000000000E+00 0. -1.
         24    1    1    2    0    0 -0.27754812840E+02  0.74737907972E+02  0.52931082757E+02  0.12500000000E+03  0.80419002446E+02 0.  1.
        -24    1    1    2    0    0  0.27754812840E+02 -0.74737907972E+02 -0.52931082757E+02  0.12500000000E+03  0.80419002446E+02 0. -1.
</event>
<event>
 4    1  0.1599584E-001  0.1250000E+03  0.7546771E-02  0.1126479E+00
        -11   -1    0    0    0    0  0.00000000000E+00  0.00000000000E+00  0.12500000000E+03  0.12500000000E+03  0.00000000000E+00 0.  1.
         11   -1    0    0    0    0 -0.00000000000E+00 -0.00000000000E+00 -0.12500000000E+03  0.12500000000E+03  0.00000000000E+00 0. -1.
         24    1    1    2    0    0 -0.88922617947E+02 -0.15391902465E+02 -0.31837735497E+02  0.12500000000E+03  0.80419002446E+02 0. -1.
        -24    1    1    2    0    0  0.88922617947E+02  0.15391902465E+02  0.31837735497E+02  0.12500000000E+03  0.80419002446E+02 0.  1.
</event>
<event>
 4    1  0.1599584E-001  0.1250000E+03  0.7546771E-02  0.1126479E+00
        -11   -1    0    0    0    0  0.00000000000E+00  0.00000000000E+00  0.12500000000E+03  0.12500000000E+03  0.00000000000E+00 0.  1.
         11   -1    0    0    0    0 -0.00000000000E+00 -0.00000000000E+00 -0.12500000000E+03  0.12500000000E+03  0.00000000000E+00 0. -1.
         24    1    1    2    0    0  0.79471805461E+02  0.53099873662E+02  0.47349339469E+01  0.12500000000E+03  0.80419002446E+02 0.  0.
        -24    1    1    2    0    0 -0.79471805461E+02 -0.53099873662E+02 -0.47349339469E+01  0.12500000000E+03  0.80419002446E+02 0. -1.
</event>
<event>
 4    1  0.1599584E-001  0.1250000E+03  0.7546771E-02  0.1126479E+00
        -11   -1    0    0    0    0  0.00000000000E+00  0.00000000000E+00  0.12500000000E+03  0.12500000000E+03  0.00000000000E+00 0.  1.
         11   -1    0    0    0    0 -0.00000000000E+00 -0.00000000000E+00 -0.12500000000E+03  0.12500000000E+03  0.00000000000E+00 0. -1.
         24    1    1    2    0    0 -0.12903701382E+02  0.37170834075E+02  0.87233065007E+02  0.12500000000E+03  0.80419002446E+02 0.  1.
        -24    1    1    2    0    0  0.12903701382E+02 -0.37170834075E+02 -0.87233065007E+02  0.12500000000E+03  0.80419002446E+02 0. -1.
</event>
<event>
 4    1  0.1599584E-001  0.1250000E+03  0.7546771E-02  0.1126479E+00
        -11   -1    0    0    0    0  0.00000000000E+00  0.00000000000E+00  0.12500000000E+03  0.12500000000E+03  0.00000000000E+00 0.  1.
         11   -1    0    0    0    0 -0.00000000000E+00 -0.00000000000E+00 -0.12500000000E+03  0.12500000000E+03  0.00000000000E+00 0. -1.
         24    1    1    2    0    0 -0.11840057056E+02 -0.24338612709E+02  0.91789046329E+02  0.12500000000E+03  0.80419002446E+02 0.  0.
        -24    1    1    2    0    0  0.11840057056E+02  0.24338612709E+02 -0.91789046329E+02  0.12500000000E+03  0.80419002446E+02 0. -1.
</event>
<event>
 4    1  0.1599584E-001  0.1250000E+03  0.7546771E-02  0.1126479E+00
        -11   -1    0    0    0    0  0.00000000000E+00  0.00000000000E+00  0.12500000000E+03  0.12500000000E+03  0.00000000000E+00 0.  1.
         11   -1    0    0    0    0 -0.00000000000E+00 -0.00000000000E+00 -0.12500000000E+03  0.12500000000E+03  0.00000000000E+00 0. -1.
         24    1    1    2    0    0  0.46889019598E+02 -0.27034059956E+01  0.83378027578E+02  0.12500000000E+03  0.80419002446E+02 0.  1.
        -24    1    1    2    0    0 -0.46889019598E+02  0.27034059956E+01 -0.83378027578E+02  0.12500000000E+03  0.80419002446E+02 0. -1.
</event>
<event>
 4    1  0.1599584E-001  0.1250000E+03  0.7546771E-02  0.1126479E+00
        -11   -1    0    0    0    0  0.00000000000E+00  0.00000000000E+00  0.12500000000E+03  0.12500000000E+03  0.00000000000E+00 0.  1.
         11   -1    0    0    0    0 -0.00000000000E+00 -0.00000000000E+00 -0.12500000000E+03  0.12500000000E+03  0.00000000000E+00 0. -1.
         24    1    1    2    0    0 -0.13477405620E+01  0.90563071831E+02 -0.30891708622E+02  0.12500000000E+03  0.80419002446E+02 0. -1.
        -24    1    1    2    0    0  0.13477405620E+01 -0.90563071831E+02  0.30891708622E+02  0.12500000000E+03  0.80419002446E+02 0.  1.
</event>
<event>
 4    1  0.1599584E-001  0.1250000E+03  0.7546771E-02  0.1126479E+00
        -11   -1    0    0    0    0  0.00000000000E+00  0.00000000000E+00  0.12500000000E+03  0.12500000000E+03  0.00000000000E+00 0.  1.
         11   -1    0    0    0    0 -0.00000000000E+00 -0.00000000000E+00 -0.12500000000E+03  0.12500000000E+03  0.00000000000E+00 0. -1.
         24    1    1    2    0    0  0.74495111492E+02 -0.38398405112E+02  0.46193342532E+02  0.12500000000E+03  0.80419002446E+02 0.  1.
        -24    1    1    2    0    0 -0.74495111492E+02  0.38398405112E+02 -0.46193342532E+02  0.12500000000E+03  0.80419002446E+02 0. -1.
</event>
<event>
 4    1  0.1599584E-001  0.1250000E+03  0.7546771E-02  0.1126479E+00
        -11   -1    0    0    0    0  0.00000000000E+00  0.00000000000E+00  0.12500000000E+03  0.12500000000E+03  0.00000000000E+00 0.  1.
         11   -1    0    0    0    0 -0.00000000000E+00 -0.00000000000E+00 -0.12500000000E+03  0.12500000000E+03  0.00000000000E+00 0. -1.
         24    1    1    2    0    0  0.19415981069E+02 -0.45778822332E+02  0.81762480091E+02  0.12500000000E+03  0.80419002446E+02 0.  1.
        -24    1    1    2    0    0 -0.19415981069E+02  0.45778822332E+02 -0.81762480091E+02  0.12500000000E+03  0.80419002446E+02 0. -1.
</event>
<event>
 4    1  0.1599584E-001  0.1250000E+03  0.7546771E-02  0.1126479E+00
        -11   -1    0    0    0    0  0.00000000000E+00  0.00000000000E+00  0.12500000000E+03  0.12500000000E+03  0.00000000000E+00 0.  1.
         11   -1    0    0    0    0 -0.00000000000E+00 -0.00000000000E+00 -0.12500000000E+03  0.12500000000E+03  0.00000000000E+00 0. -1.
         24    1    1    2    0    0  0.66904349736E+02 -0.47680138731E+02  0.49073377738E+02  0.12500000000E+03  0.80419002446E+02 0.  0.
        -24    1    1    2    0    0 -0.66904349736E+02  0.47680138731E+02 -0.49073377738E+02  0.12500000000E+03  0.80419002446E+02 0. -1.
</event>
<event>
 4    1  0.1599584E-001  0.1250000E+03  0.7546771E-02  0.1126479E+00
        -11   -1    0    0    0    0  0.00000000000E+00  0.00000000000E+00  0.12500000000E+03  0.12500000000E+03  0.00000000000E+00 0.  1.
         11   -1    0    0    0    0 -0.00000000000E+00 -0.00000000000E+00 -0.12500000000E+03  0.12500000000E+03  0.00000000000E+00 0. -1.
         24    1    1    2    0    0 -0.69576781971E+02  0.43552650430E+02  0.49193720094E+02  0.12500000000E+03  0.80419002446E+02 0.  1.
        -24    1    1    2    0    0  0.69576781971E+02 -0.43552650430E+02 -0.49193720094E+02  0.12500000000E+03  0.80419002446E+02 0.  0.
</event>
<event>
 4    1  0.1599584E-001  0.1250000E+03  0.7546771E-02  0.1126479E+00
        -11   -1    0    0    0    0  0.00000000000E+00  0.00000000000E+00  0.12500000000E+03  0.12500000000E+03  0.00000000000E+00 0.  1.
         11   -1    0    0    0    0 -0.00000000000E+00 -0.00000000000E+00 -0.12500000000E+03  0.12500000000E+03  0.00000000000E+00 0. -1.
         24    1    1    2    0    0 -0.13414789486E+02 -0.27722606349E+02  0.90605102317E+02  0.12500000000E+03  0.80419002446E+02 0.  1.
        -24    1    1    2    0    0  0.13414789486E+02  0.27722606349E+02 -0.90605102317E+02  0.12500000000E+03  0.80419002446E+02 0. -1.
</event>
<event>
 4    1  0.1599584E-001  0.1250000E+03  0.7546771E-02  0.1126479E+00
        -11   -1    0    0    0    0  0.00000000000E+00  0.00000000000E+00  0.12500000000E+03  0.12500000000E+03  0.00000000000E+00 0.  1.
         11   -1    0    0    0    0 -0.00000000000E+00 -0.00000000000E+00 -0.12500000000E+03  0.12500000000E+03  0.00000000000E+00 0. -1.
         24    1    1    2    0    0 -0.23089921163E+02 -0.57831045531E+01  0.92688700973E+02  0.12500000000E+03  0.80419002446E+02 0.  0.
        -24    1    1    2    0    0  0.23089921163E+02  0.57831045531E+01 -0.92688700973E+02  0.12500000000E+03  0.80419002446E+02 0.  0.
</event>
<event>
 4    1  0.1599584E-001  0.1250000E+03  0.7546771E-02  0.1126479E+00
        -11   -1    0    0    0    0  0.00000000000E+00  0.00000000000E+00  0.12500000000E+03  0.12500000000E+03  0.00000000000E+00 0.  1.
         11   -1    0    0    0    0 -0.00000000000E+00 -0.00000000000E+00 -0.12500000000E+03  0.12500000000E+03  0.00000000000E+00 0. -1.
         24    1    1    2    0    0 -0.10104055989E+02  0.50422184007E+02  0.80704990293E+02  0.12500000000E+03  0.80419002446E+02 0.  1.
        -24    1    1    2    0    0  0.10104055989E+02 -0.50422184007E+02 -0.80704990293E+02  0.12500000000E+03  0.80419002446E+02 0. -1.
</event>
<event>
 4    1  0.1599584E-001  0.1250000E+03  0.7546771E-02  0.1126479E+00
        -11   -1    0    0    0    0  0.00000000000E+00  0.00000000000E+00  0.12500000000E+03  0.12500000000E+03  0.00000000000E+00 0.  1.
         11   -1    0    0    0    0 -0.00000000000E+00 -0.00000000000E+00 -0.12500000000E+03  0.12500000000E+03  0.00000000000E+00 0. -1.
         24    1    1    2    0    0 -0.19187524086E+02 -0.73683442581E+01  0.93462989830E+02  0.12500000000E+03  0.80419002446E+02 0.  1.
        -24    1    1    2    0    0  0.19187524086E+02  0.73683442581E+01 -0.93462989830E+02  0.12500000000E+03  0.80419002446E+02 0. -1.
</event>
<event>
 4    1  0.1599584E-001  0.1250000E+03  0.7546771E-02  0.1126479E+00
        -11   -1    0    0    0    0  0.00000000000E+00  0.00000000000E+00  0.12500000000E+03  0.12500000000E+03  0.00000000000E+00 0.  1.
         11   -1    0    0    0    0 -0.00000000000E+00 -0.00000000000E+00 -0.12500000000E+03  0.12500000000E+03  0.00000000000E+00 0. -1.
         24    1    1    2    0    0 -0.88534257959E+02  0.30214480229E+02  0.20163194135E+02  0.12500000000E+03  0.80419002446E+02 0.  1.
        -24    1    1    2    0    0  0.88534257959E+02 -0.30214480229E+02 -0.20163194135E+02  0.12500000000E+03  0.80419002446E+02 0. -1.
</event>
<event>
 4    1  0.1599584E-001  0.1250000E+03  0.7546771E-02  0.1126479E+00
        -11   -1    0    0    0    0  0.00000000000E+00  0.00000000000E+00  0.12500000000E+03  0.12500000000E+03  0.00000000000E+00 0.  1.
         11   -1    0    0    0    0 -0.00000000000E+00 -0.00000000000E+00 -0.12500000000E+03  0.12500000000E+03  0.00000000000E+00 0. -1.
         24    1    1    2    0    0 -0.70509341119E+02 -0.25602793300E+02  0.59419810130E+02  0.12500000000E+03  0.80419002446E+02 0.  0.
        -24    1    1    2    0    0  0.70509341119E+02  0.25602793300E+02 -0.59419810130E+02  0.12500000000E+03  0.80419002446E+02 0. -1.
</event>
<event>
 4    1  0.1599584E-001  0.1250000E+03  0.7546771E-02  0.1126479E+00
        -11   -1    0    0    0    0  0.00000000000E+00  0.00000000000E+00  0.12500000000E+03  0.12500000000E+03  0.00000000000E+00 0.  1.
         11   -1    0    0    0    0 -0.00000000000E+00 -0.00000000000E+00 -0.12500000000E+03  0.12500000000E+03  0.00000000000E+00 0. -1.
         24    1    1    2    0    0  0.35127987160E+02 -0.53082284548E+02  0.71456837538E+02  0.12500000000E+03  0.80419002446E+02 0.  1.
        -24    1    1    2    0    0 -0.35127987160E+02  0.53082284548E+02 -0.71456837538E+02  0.12500000000E+03  0.80419002446E+02 0. -1.
</event>
<event>
 4    1  0.1599584E-001  0.1250000E+03  0.7546771E-02  0.1126479E+00
        -11   -1    0    0    0    0  0.00000000000E+00  0.00000000000E+00  0.12500000000E+03  0.12500000000E+03  0.00000000000E+00 0.  1.
         11   -1    0    0    0    0 -0.00000000000E+00 -0.00000000000E+00 -0.12500000000E+03  0.12500000000E+03  0.00000000000E+00 0. -1.
         24    1    1    2    0    0 -0.33632770514E+02  0.83680364805E+01  0.89199757615E+02  0.12500000000E+03  0.80419002446E+02 0.  1.
        -24    1    1    2    0    0  0.33632770514E+02 -0.83680364805E+01 -0.89199757615E+02  0.12500000000E+03  0.80419002446E+02 0.  0.
</event>
<event>
 4    1  0.1599584E-001  0.1250000E+03  0.7546771E-02  0.1126479E+00
        -11   -1    0    0    0    0  0.00000000000E+00  0.00000000000E+00  0.12500000000E+03  0.12500000000E+03  0.00000000000E+00 0.  1.
         11   -1    0    0    0    0 -0.00000000000E+00 -0.00000000000E+00 -0.12500000000E+03  0.12500000000E+03  0.00000000000E+00 0. -1.
         24    1    1    2    0    0  0.48468527802E+02  0.36914918620E+02  0.73796169559E+02  0.12500000000E+03  0.80419002446E+02 0.  1.
        -24    1    1    2    0    0 -0.48468527802E+02 -0.36914918620E+02 -0.73796169559E+02  0.12500000000E+03  0.80419002446E+02 0. -1.
</event>
<event>
 4    1  0.1599584E-001  0.1250000E+03  0.7546771E-02  0.1126479E+00
        -11   -1    0    0    0    0  0.00000000000E+00  0.00000000000E+00  0.12500000000E+03  0.12500000000E+03  0.00000000000E+00 0.  1.
         11   -1    0    0    0    0 -0.00000000000E+00 -0.00000000000E+00 -0.12500000000E+03  0.12500000000E+03  0.00000000000E+00 0. -1.
         24    1    1    2    0    0  0.30129720269E+02 -0.61176623775E+02  0.67137208057E+02  0.12500000000E+03  0.80419002446E+02 0.  1.
        -24    1    1    2    0    0 -0.30129720269E+02  0.61176623775E+02 -0.67137208057E+02  0.12500000000E+03  0.80419002446E+02 0. -1.
</event>
<event>
 4    1  0.1599584E-001  0.1250000E+03  0.7546771E-02  0.1126479E+00
        -11   -1    0    0    0    0  0.00000000000E+00  0.00000000000E+00  0.12500000000E+03  0.12500000000E+03  0.00000000000E+00 0.  1.
         11   -1    0    0    0    0 -0.00000000000E+00 -0.00000000000E+00 -0.12500000000E+03  0.12500000000E+03  0.00000000000E+00 0. -1.
         24    1    1    2    0    0  0.45150309429E+02  0.84266445593E+02 -0.42894931154E+01  0.12500000000E+03  0.80419002446E+02 0.  1.
        -24    1    1    2    0    0 -0.45150309429E+02 -0.84266445593E+02  0.42894931154E+01  0.12500000000E+03  0.80419002446E+02 0. -1.
</event>
<event>
 4    1  0.1599584E-001  0.1250000E+03  0.7546771E-02  0.1126479E+00
        -11   -1    0    0    0    0  0.00000000000E+00  0.00000000000E+00  0.12500000000E+03  0.12500000000E+03  0.00000000000E+00 0.  1.
         11   -1    0    0    0    0 -0.00000000000E+00 -0.00000000000E+00 -0.12500000000E+03  0.12500000000E+03  0.00000000000E+00 0. -1.
         24    1    1    2    0    0  0.24660298639E+02  0.62204529347E+01  0.92254862647E+02  0.12500000000E+03  0.80419002446E+02 0.  1.
        -24    1    1    2    0    0 -0.24660298639E+02 -0.62204529347E+01 -0.92254862647E+02  0.12500000000E+03  0.80419002446E+02 0. -1.
</event>
<event>
 4    1  0.1599584E-001  0.1250000E+03  0.7546771E-02  0.1126479E+00
        -11   -1    0    0    0    0  0.00000000000E+00  0.00000000000E+00  0.12500000000E+03  0.12500000000E+03  0.00000000000E+00 0.  1.
         11   -1    0    0    0    0 -0.00000000000E+00 -0.00000000000E+00 -0.12500000000E+03  0.12500000000E+03  0.00000000000E+00 0. -1.
         24    1    1    2    0    0 -0.36535395681E+02 -0.45333627083E+02  0.75946106968E+02  0.12500000000E+03  0.80419002446E+02 0.  1.
        -24    1    1    2    0    0  0.36535395681E+02  0.45333627083E+02 -0.75946106968E+02  0.12500000000E+03  0.80419002446E+02 0. -1.
</event>
<event>
 4    1  0.1599584E-001  0.1250000E+03  0.7546771E-02  0.1126479E+00
        -11   -1    0    0    0    0  0.00000000000E+00  0.00000000000E+00  0.12500000000E+03  0.12500000000E+03  0.00000000000E+00 0.  1.
         11   -1    0    0    0    0 -0.00000000000E+00 -0.00000000000E+00 -0.12500000000E+03  0.12500000000E+03  0.00000000000E+00 0. -1.
         24    1    1    2    0    0 -0.22579378416E+02 -0.76710887339E+01  0.92677452024E+02  0.12500000000E+03  0.80419002446E+02 0.  0.
        -24    1    1    2    0    0  0.22579378416E+02  0.76710887339E+01 -0.92677452024E+02  0.12500000000E+03  0.80419002446E+02 0. -1.
</event>
<event>
 4    1  0.1599584E-001  0.1250000E+03  0.7546771E-02  0.1126479E+00
        -11   -1    0    0    0    0  0.00000000000E+00  0.00000000000E+00  0.12500000000E+03  0.12500000000E+03  0.00000000000E+00 0.  1.
         11   -1    0    0    0    0 -0.00000000000E+00 -0.00000000000E+00 -0.12500000000E+03  0.12500000000E+03  0.00000000000E+00 0. -1.
         24    1    1    2    0    0 -0.60005861267E+02  0.65367271741E+01  0.74258682032E+02  0.12500000000E+03  0.80419002446E+02 0.  1.
        -24    1    1    2    0    0  0.60005861267E+02 -0.65367271741E+01 -0.74258682032E+02  0.12500000000E+03  0.80419002446E+02 0. -1.
</event>
<event>
 4    1  0.1599584E-001  0.1250000E+03  0.7546771E-02  0.1126479E+00
        -11   -1    0    0    0    0  0.00000000000E+00  0.00000000000E+00  0.12500000000E+03  0.12500000000E+03  0.00000000000E+00 0.  1.
         11   -1    0    0    0    0 -0.00000000000E+00 -0.00000000000E+00 -0.12500000000E+03  0.12500000000E+03  0.00000000000E+00 0. -1.
         24    1    1    2    0    0  0.22124977359E+02 -0.17907408603E+02  0.91365169182E+02  0.12500000000E+03  0.80419002446E+02 0.  1.
        -24    1    1    2    0    0 -0.22124977359E+02  0.17907408603E+02 -0.91365169182E+02  0.12500000000E+03  0.80419002446E+02 0. -1.
</event>
<event>
 4    1  0.1599584E-001  0.1250000E+03  0.7546771E-02  0.1126479E+00
        -11   -1    0    0    0    0  0.00000000000E+00  0.00000000000E+00  0.12500000000E+03  0.12500000000E+03  0.00000000000E+00 0.  1.
         11   -1    0    0    0    0 -0.00000000000E+00 -0.00000000000E+00 -0.12500000000E+03  0.12500000000E+03  0.00000000000E+00 0. -1.
         24    1    1    2    0    0  0.56469365307E+02 -0.12421273011E+02  0.76254224828E+02  0.12500000000E+03  0.80419002446E+02 0.  1.
        -24    1    1    2    0    0 -0.56469365307E+02  0.12421273011E+02 -0.76254224828E+02  0.12500000000E+03  0.80419002446E+02 0. -1.
</event>
<event>
 4    1  0.1599584E-001  0.1250000E+03  0.7546771E-02  0.1126479E+00
        -11   -1    0    0    0    0  0.00000000000E+00  0.00000000000E+00  0.12500000000E+03  0.12500000000E+03  0.00000000000E+00 0.  1.
         11   -1    0    0    0    0 -0.00000000000E+00 -0.00000000000E+00 -0.12500000000E+03  0.12500000000E+03  0.00000000000E+00 0. -1.
         24    1    1    2    0    0  0.58824847872E+01  0.21645166682E+01  0.95490812574E+02  0.12500000000E+03  0.80419002446E+02 0.  0.
        -24    1    1    2    0    0 -0.58824847872E+01 -0.21645166682E+01 -0.95490812574E+02  0.12500000000E+03  0.80419002446E+02 0. -1.
</event>
<event>
 4    1  0.1599584E-001  0.1250000E+03  0.7546771E-02  0.1126479E+00
        -11   -1    0    0    0    0  0.00000000000E+00  0.00000000000E+00  0.12500000000E+03  0.12500000000E+03  0.00000000000E+00 0.  1.
         11   -1    0    0    0    0 -0.00000000000E+00 -0.00000000000E+00 -0.12500000000E+03  0.12500000000E+03  0.00000000000E+00 0. -1.
         24    1    1    2    0    0 -0.15511679663E+02 -0.64120538253E+02  0.69323361242E+02  0.12500000000E+03  0.80419002446E+02 0.  1.
        -24    1    1    2    0    0  0.15511679663E+02  0.64120538253E+02 -0.69323361242E+02  0.12500000000E+03  0.80419002446E+02 0. -1.
</event>
<event>
 4    1  0.1599584E-001  0.1250000E+03  0.7546771E-02  0.1126479E+00
        -11   -1    0    0    0    0  0.00000000000E+00  0.00000000000E+00  0.12500000000E+03  0.12500000000E+03  0.00000000000E+00 0.  1.
         11   -1    0    0    0    0 -0.00000000000E+00 -0.00000000000E+00 -0.12500000000E+03  0.12500000000E+03  0.00000000000E+00 0. -1.
         24    1    1    2    0    0  0.76359791209E+02 -0.32433889535E+02  0.47697055902E+02  0.12500000000E+03  0.80419002446E+02 0.  1.
        -24    1    1    2    0    0 -0.76359791209E+02  0.32433889535E+02 -0.47697055902E+02  0.12500000000E+03  0.80419002446E+02 0. -1.
</event>
<event>
 4    1  0.1599584E-001  0.1250000E+03  0.7546771E-02  0.1126479E+00
        -11   -1    0    0    0    0  0.00000000000E+00  0.00000000000E+00  0.12500000000E+03  0.12500000000E+03  0.00000000000E+00 0.  1.
         11   -1    0    0    0    0 -0.00000000000E+00 -0.00000000000E+00 -0.12500000000E+03  0.12500000000E+03  0.00000000000E+00 0. -1.
         24    1    1    2    0    0  0.22735736737E+02 -0.13096358713E+02  0.92029102512E+02  0.12500000000E+03  0.80419002446E+02 0.  1.
        -24    1    1    2    0    0 -0.22735736737E+02  0.13096358713E+02 -0.92029102512E+02  0.12500000000E+03  0.80419002446E+02 0. -1.
</event>
<event>
 4    1  0.1599584E-001  0.1250000E+03  0.7546771E-02  0.1126479E+00
        -11   -1    0    0    0    0  0.00000000000E+00  0.00000000000E+00  0.12500000000E+03  0.12500000000E+03  0.00000000000E+00 0. -1.
         11   -1    0    0    0    0 -0.00000000000E+00 -0.00000000000E+00 -0.12500000000E+03  0.12500000000E+03  0.00000000000E+00 0.  1.
         24    1    1    2    0    0  0.75945846245E+02  0.36942837940E+02 -0.45002657796E+02  0.12500000000E+03  0.80419002446E+02 0.  0.
        -24    1    1    2    0    0 -0.75945846245E+02 -0.36942837940E+02  0.45002657796E+02  0.12500000000E+03  0.80419002446E+02 0. -1.
</event>
<event>
 4    1  0.1599584E-001  0.1250000E+03  0.7546771E-02  0.1126479E+00
        -11   -1    0    0    0    0  0.00000000000E+00  0.00000000000E+00  0.12500000000E+03  0.12500000000E+03  0.00000000000E+00 0.  1.
         11   -1    0    0    0    0 -0.00000000000E+00 -0.00000000000E+00 -0.12500000000E+03  0.12500000000E+03  0.00000000000E+00 0. -1.
         24    1    1    2    0    0 -0.49715303714E+02  0.12851996453E+02  0.80752701561E+02  0.12500000000E+03  0.80419002446E+02 0.  1.
        -24    1    1    2    0    0  0.49715303714E+02 -0.12851996453E+02 -0.80752701561E+02  0.12500000000E+03  0.80419002446E+02 0. -1.
</event>
<event>
 4    1  0.1599584E-001  0.1250000E+03  0.7546771E-02  0.1126479E+00
        -11   -1    0    0    0    0  0.00000000000E+00  0.00000000000E+00  0.12500000000E+03  0.12500000000E+03  0.00000000000E+00 0.  1.
         11   -1    0    0    0    0 -0.00000000000E+00 -0.00000000000E+00 -0.12500000000E+03  0.12500000000E+03  0.00000000000E+00 0. -1.
         24    1    1    2    0    0 -0.34551691995E+02  0.72248183623E+02  0.52384774401E+02  0.12500000000E+03  0.80419002446E+02 0.  1.
        -24    1    1    2    0    0  0.34551691995E+02 -0.72248183623E+02 -0.52384774401E+02  0.12500000000E+03  0.80419002446E+02 0. -1.
</event>
<event>
 4    1  0.1599584E-001  0.1250000E+03  0.7546771E-02  0.1126479E+00
        -11   -1    0    0    0    0  0.00000000000E+00  0.00000000000E+00  0.12500000000E+03  0.12500000000E+03  0.00000000000E+00 0.  1.
         11   -1    0    0    0    0 -0.00000000000E+00 -0.00000000000E+00 -0.12500000000E+03  0.12500000000E+03  0.00000000000E+00 0. -1.
         24    1    1    2    0    0 -0.34922743185E+02  0.55863191124E+02  0.69408140240E+02  0.12500000000E+03  0.80419002446E+02 0.  1.
        -24    1    1    2    0    0  0.34922743185E+02 -0.55863191124E+02 -0.69408140240E+02  0.12500000000E+03  0.80419002446E+02 0. -1.
</event>
<event>
 4    1  0.1599584E-001  0.1250000E+03  0.7546771E-02  0.1126479E+00
        -11   -1    0    0    0    0  0.00000000000E+00  0.00000000000E+00  0.12500000000E+03  0.12500000000E+03  0.00000000000E+00 0.  1.
         11   -1    0    0    0    0 -0.00000000000E+00 -0.00000000000E+00 -0.12500000000E+03  0.12500000000E+03  0.00000000000E+00 0. -1.
         24    1    1    2    0    0  0.31014112679E+02 -0.48459753665E+02  0.76469347683E+02  0.12500000000E+03  0.80419002446E+02 0.  1.
        -24    1    1    2    0    0 -0.31014112679E+02  0.48459753665E+02 -0.76469347683E+02  0.12500000000E+03  0.80419002446E+02 0. -1.
</event>
<event>
 4    1  0.1599584E-001  0.1250000E+03  0.7546771E-02  0.1126479E+00
        -11   -1    0    0    0    0  0.00000000000E+00  0.00000000000E+00  0.12500000000E+03  0.12500000000E+03  0.00000000000E+00 0.  1.
         11   -1    0    0    0    0 -0.00000000000E+00 -0.00000000000E+00 -0.12500000000E+03  0.12500000000E+03  0.00000000000E+00 0. -1.
         24    1    1    2    0    0 -0.19248414725E+01 -0.31102079491E+02  0.90480603901E+02  0.12500000000E+03  0.80419002446E+02 0.  1.
        -24    1    1    2    0    0  0.19248414725E+01  0.31102079491E+02 -0.90480603901E+02  0.12500000000E+03  0.80419002446E+02 0. -1.
</event>
<event>
 4    1  0.1599584E-001  0.1250000E+03  0.7546771E-02  0.1126479E+00
        -11   -1    0    0    0    0  0.00000000000E+00  0.00000000000E+00  0.12500000000E+03  0.12500000000E+03  0.00000000000E+00 0.  1.
         11   -1    0    0    0    0 -0.00000000000E+00 -0.00000000000E+00 -0.12500000000E+03  0.12500000000E+03  0.00000000000E+00 0. -1.
         24    1    1    2    0    0  0.18166952679E+01  0.11127201715E+02  0.95029832400E+02  0.12500000000E+03  0.80419002446E+02 0.  0.
        -24    1    1    2    0    0 -0.18166952679E+01 -0.11127201715E+02 -0.95029832400E+02  0.12500000000E+03  0.80419002446E+02 0. -1.
</event>
<event>
 4    1  0.1599584E-001  0.1250000E+03  0.7546771E-02  0.1126479E+00
        -11   -1    0    0    0    0  0.00000000000E+00  0.00000000000E+00  0.12500000000E+03  0.12500000000E+03  0.00000000000E+00 0.  1.
         11   -1    0    0    0    0 -0.00000000000E+00 -0.00000000000E+00 -0.12500000000E+03  0.12500000000E+03  0.00000000000E+00 0. -1.
         24    1    1    2    0    0  0.23775434143E+02  0.17567044149E+02  0.91015997148E+02  0.12500000000E+03  0.80419002446E+02 0.  1.
        -24    1    1    2    0    0 -0.23775434143E+02 -0.17567044149E+02 -0.91015997148E+02  0.12500000000E+03  0.80419002446E+02 0. -1.
</event>
<event>
 4    1  0.1599584E-001  0.1250000E+03  0.7546771E-02  0.1126479E+00
        -11   -1    0    0    0    0  0.00000000000E+00  0.00000000000E+00  0.12500000000E+03  0.12500000000E+03  0.00000000000E+00 0.  1.
         11   -1    0    0    0    0 -0.00000000000E+00 -0.00000000000E+00 -0.12500000000E+03  0.12500000000E+03  0.00000000000E+00 0. -1.
         24    1    1    2    0    0 -0.56824774445E+02  0.42197850424E+01  0.76882523821E+02  0.12500000000E+03  0.80419002446E+02 0.  1.
        -24    1    1    2    0    0  0.56824774445E+02 -0.42197850424E+01 -0.76882523821E+02  0.12500000000E+03  0.80419002446E+02 0. -1.
</event>
<event>
 4    1  0.1599584E-001  0.1250000E+03  0.7546771E-02  0.1126479E+00
        -11   -1    0    0    0    0  0.00000000000E+00  0.00000000000E+00  0.12500000000E+03  0.12500000000E+03  0.00000000000E+00 0.  1.
         11   -1    0    0    0    0 -0.00000000000E+00 -0.00000000000E+00 -0.12500000000E+03  0.12500000000E+03  0.00000000000E+00 0. -1.
         24    1    1    2    0    0 -0.49200287704E+02 -0.79809294200E+01  0.81691006244E+02  0.12500000000E+03  0.80419002446E+02 0.  1.
        -24    1    1    2    0    0  0.49200287704E+02  0.79809294200E+01 -0.81691006244E+02  0.12500000000E+03  0.80419002446E+02 0. -1.
</event>
<event>
 4    1  0.1599584E-001  0.1250000E+03  0.7546771E-02  0.1126479E+00
        -11   -1    0    0    0    0  0.00000000000E+00  0.00000000000E+00  0.12500000000E+03  0.12500000000E+03  0.00000000000E+00 0.  1.
         11   -1    0    0    0    0 -0.00000000000E+00 -0.00000000000E+00 -0.12500000000E+03  0.12500000000E+03  0.00000000000E+00 0. -1.
         24    1    1    2    0    0 -0.46872132081E+02  0.38512810622E+02  0.74010476946E+02  0.12500000000E+03  0.80419002446E+02 0.  1.
        -24    1    1    2    0    0  0.46872132081E+02 -0.38512810622E+02 -0.74010476946E+02  0.12500000000E+03  0.80419002446E+02 0. -1.
</event>
<event>
 4    1  0.1599584E-001  0.1250000E+03  0.7546771E-02  0.1126479E+00
        -11   -1    0    0    0    0  0.00000000000E+00  0.00000000000E+00  0.12500000000E+03  0.12500000000E+03  0.00000000000E+00 0.  1.
         11   -1    0    0    0    0 -0.00000000000E+00 -0.00000000000E+00 -0.12500000000E+03  0.12500000000E+03  0.00000000000E+00 0. -1.
         24    1    1    2    0    0 -0.19071969788E+02  0.46580014728E+02  0.81390086878E+02  0.12500000000E+03  0.80419002446E+02 0.  1.
        -24    1    1    2    0    0  0.19071969788E+02 -0.46580014728E+02 -0.81390086878E+02  0.12500000000E+03  0.80419002446E+02 0. -1.
</event>
<event>
 4    1  0.1599584E-001  0.1250000E+03  0.7546771E-02  0.1126479E+00
        -11   -1    0    0    0    0  0.00000000000E+00  0.00000000000E+00  0.12500000000E+03  0.12500000000E+03  0.00000000000E+00 0.  1.
         11   -1    0    0    0    0 -0.00000000000E+00 -0.00000000000E+00 -0.12500000000E+03  0.12500000000E+03  0.00000000000E+00 0. -1.
         24    1    1    2    0    0  0.39996287807E+02  0.60862867815E+01  0.86723918964E+02  0.12500000000E+03  0.80419002446E+02 0.  1.
        -24    1    1    2    0    0 -0.39996287807E+02 -0.60862867815E+01 -0.86723918964E+02  0.12500000000E+03  0.80419002446E+02 0. -1.
</event>
<event>
 4    1  0.1599584E-001  0.1250000E+03  0.7546771E-02  0.1126479E+00
        -11   -1    0    0    0    0  0.00000000000E+00  0.00000000000E+00  0.12500000000E+03  0.12500000000E+03  0.00000000000E+00 0.  1.
         11   -1    0    0    0    0 -0.00000000000E+00 -0.00000000000E+00 -0.12500000000E+03  0.12500000000E+03  0.00000000000E+00 0. -1.
         24    1    1    2    0    0 -0.25923147011E+02  0.32248193421E+02  0.86289214365E+02  0.12500000000E+03  0.80419002446E+02 0.  0.
        -24    1    1    2    0    0  0.25923147011E+02 -0.32248193421E+02 -0.86289214365E+02  0.12500000000E+03  0.80419002446E+02 0.  0.
</event>
<event>
 4    1  0.1599584E-001  0.1250000E+03  0.7546771E-02  0.1126479E+00
        -11   -1    0    0    0    0  0.00000000000E+00  0.00000000000E+00  0.12500000000E+03  0.12500000000E+03  0.00000000000E+00 0.  1.
         11   -1    0    0    0    0 -0.00000000000E+00 -0.00000000000E+00 -0.12500000000E+03  0.12500000000E+03  0.00000000000E+00 0. -1.
         24    1    1    2    0    0 -0.14590369478E+02 -0.51232184191E+02  0.79499487213E+02  0.12500000000E+03  0.80419002446E+02 0.  1.
        -24    1    1    2    0    0  0.14590369478E+02  0.51232184191E+02 -0.79499487213E+02  0.12500000000E+03  0.80419002446E+02 0. -1.
</event>
<event>
 4    1  0.1599584E-001  0.1250000E+03  0.7546771E-02  0.1126479E+00
        -11   -1    0    0    0    0  0.00000000000E+00  0.00000000000E+00  0.12500000000E+03  0.12500000000E+03  0.00000000000E+00 0.  1.
         11   -1    0    0    0    0 -0.00000000000E+00 -0.00000000000E+00 -0.12500000000E+03  0.12500000000E+03  0.00000000000E+00 0. -1.
         24    1    1    2    0    0  0.63444163104E+02 -0.38311090265E+02  0.60538273648E+02  0.12500000000E+03  0.80419002446E+02 0.  1.
        -24    1    1    2    0    0 -0.63444163104E+02  0.38311090265E+02 -0.60538273648E+02  0.12500000000E+03  0.80419002446E+02 0. -1.
</event>
<event>
 4    1  0.1599584E-001  0.1250000E+03  0.7546771E-02  0.1126479E+00
        -11   -1    0    0    0    0  0.00000000000E+00  0.00000000000E+00  0.12500000000E+03  0.12500000000E+03  0.00000000000E+00 0.  1.
         11   -1    0    0    0    0 -0.00000000000E+00 -0.00000000000E+00 -0.12500000000E+03  0.12500000000E+03  0.00000000000E+00 0. -1.
         24    1    1    2    0    0  0.88466408409E+02 -0.12067888318E+02  0.34436095893E+02  0.12500000000E+03  0.80419002446E+02 0.  1.
        -24    1    1    2    0    0 -0.88466408409E+02  0.12067888318E+02 -0.34436095893E+02  0.12500000000E+03  0.80419002446E+02 0.  0.
</event>
<event>
 4    1  0.1599584E-001  0.1250000E+03  0.7546771E-02  0.1126479E+00
        -11   -1    0    0    0    0  0.00000000000E+00  0.00000000000E+00  0.12500000000E+03  0.12500000000E+03  0.00000000000E+00 0.  1.
         11   -1    0    0    0    0 -0.00000000000E+00 -0.00000000000E+00 -0.12500000000E+03  0.12500000000E+03  0.00000000000E+00 0. -1.
         24    1    1    2    0    0  0.52294250584E+02  0.25720709561E+02  0.75904812108E+02  0.12500000000E+03  0.80419002446E+02 0.  1.
        -24    1    1    2    0    0 -0.52294250584E+02 -0.25720709561E+02 -0.75904812108E+02  0.12500000000E+03  0.80419002446E+02 0. -1.
</event>
<event>
 4    1  0.1599584E-001  0.1250000E+03  0.7546771E-02  0.1126479E+00
        -11   -1    0    0    0    0  0.00000000000E+00  0.00000000000E+00  0.12500000000E+03  0.12500000000E+03  0.00000000000E+00 0.  1.
         11   -1    0    0    0    0 -0.00000000000E+00 -0.00000000000E+00 -0.12500000000E+03  0.12500000000E+03  0.00000000000E+00 0. -1.
         24    1    1    2    0    0  0.67658210931E+01  0.84058443456E+02  0.45234785225E+02  0.12500000000E+03  0.80419002446E+02 0.  1.
        -24    1    1    2    0    0 -0.67658210931E+01 -0.84058443456E+02 -0.45234785225E+02  0.12500000000E+03  0.80419002446E+02 0. -1.
</event>
<event>
 4    1  0.1599584E-001  0.1250000E+03  0.7546771E-02  0.1126479E+00
        -11   -1    0    0    0    0  0.00000000000E+00  0.00000000000E+00  0.12500000000E+03  0.12500000000E+03  0.00000000000E+00 0.  1.
         11   -1    0    0    0    0 -0.00000000000E+00 -0.00000000000E+00 -0.12500000000E+03  0.12500000000E+03  0.00000000000E+00 0. -1.
         24    1    1    2    0    0 -0.71938231210E+02 -0.20581937817E+02  0.59657847528E+02  0.12500000000E+03  0.80419002446E+02 0.  0.
        -24    1    1    2    0    0  0.71938231210E+02  0.20581937817E+02 -0.59657847528E+02  0.12500000000E+03  0.80419002446E+02 0.  1.
</event>
<event>
 4    1  0.1599584E-001  0.1250000E+03  0.7546771E-02  0.1126479E+00
        -11   -1    0    0    0    0  0.00000000000E+00  0.00000000000E+00  0.12500000000E+03  0.12500000000E+03  0.00000000000E+00 0.  1.
         11   -1    0    0    0    0 -0.00000000000E+00 -0.00000000000E+00 -0.12500000000E+03  0.12500000000E+03  0.00000000000E+00 0. -1.
         24    1    1    2    0    0 -0.60634410707E+02 -0.13856063513E+02  0.72727311155E+02  0.12500000000E+03  0.80419002446E+02 0.  1.
        -24    1    1    2    0    0  0.60634410707E+02  0.13856063513E+02 -0.72727311155E+02  0.12500000000E+03  0.80419002446E+02 0. -1.
</event>
<event>
 4    1  0.1599584E-001  0.1250000E+03  0.7546771E-02  0.1126479E+00
        -11   -1    0    0    0    0  0.00000000000E+00  0.00000000000E+00  0.12500000000E+03  0.12500000000E+03  0.00000000000E+00 0.  1.
         11   -1    0    0    0    0 -0.00000000000E+00 -0.00000000000E+00 -0.12500000000E+03  0.12500000000E+03  0.00000000000E+00 0. -1.
         24    1    1    2    0    0 -0.35106505979E+02  0.16181982932E+02  0.87541194371E+02  0.12500000000E+03  0.80419002446E+02 0.  1.
        -24    1    1    2    0    0  0.35106505979E+02 -0.16181982932E+02 -0.87541194371E+02  0.12500000000E+03  0.80419002446E+02 0. -1.
</event>
<event>
 4    1  0.1599584E-001  0.1250000E+03  0.7546771E-02  0.1126479E+00
        -11   -1    0    0    0    0  0.00000000000E+00  0.00000000000E+00  0.12500000000E+03  0.12500000000E+03  0.00000000000E+00 0.  1.
         11   -1    0    0    0    0 -0.00000000000E+00 -0.00000000000E+00 -0.12500000000E+03  0.12500000000E+03  0.00000000000E+00 0. -1.
         24    1    1    2    0    0  0.98564117501E+01 -0.32445450999E+02  0.89487026448E+02  0.12500000000E+03  0.80419002446E+02 0.  1.
        -24    1    1    2    0    0 -0.98564117501E+01  0.32445450999E+02 -0.89487026448E+02  0.12500000000E+03  0.80419002446E+02 0. -1.
</event>
<event>
 4    1  0.1599584E-001  0.1250000E+03  0.7546771E-02  0.1126479E+00
        -11   -1    0    0    0    0  0.00000000000E+00  0.00000000000E+00  0.12500000000E+03  0.12500000000E+03  0.00000000000E+00 0.  1.
         11   -1    0    0    0    0 -0.00000000000E+00 -0.00000000000E+00 -0.12500000000E+03  0.12500000000E+03  0.00000000000E+00 0. -1.
         24    1    1    2    0    0 -0.58096361616E+02  0.68111617325E+02  0.33814263233E+02  0.12500000000E+03  0.80419002446E+02 0.  0.
        -24    1    1    2    0    0  0.58096361616E+02 -0.68111617325E+02 -0.33814263233E+02  0.12500000000E+03  0.80419002446E+02 0.  1.
</event>
<event>
 4    1  0.1599584E-001  0.1250000E+03  0.7546771E-02  0.1126479E+00
        -11   -1    0    0    0    0  0.00000000000E+00  0.00000000000E+00  0.12500000000E+03  0.12500000000E+03  0.00000000000E+00 0.  1.
         11   -1    0    0    0    0 -0.00000000000E+00 -0.00000000000E+00 -0.12500000000E+03  0.12500000000E+03  0.00000000000E+00 0. -1.
         24    1    1    2    0    0 -0.32308752037E+02 -0.27356564096E+02  0.85822764977E+02  0.12500000000E+03  0.80419002446E+02 0.  1.
        -24    1    1    2    0    0  0.32308752037E+02  0.27356564096E+02 -0.85822764977E+02  0.12500000000E+03  0.80419002446E+02 0. -1.
</event>
<event>
 4    1  0.1599584E-001  0.1250000E+03  0.7546771E-02  0.1126479E+00
        -11   -1    0    0    0    0  0.00000000000E+00  0.00000000000E+00  0.12500000000E+03  0.12500000000E+03  0.00000000000E+00 0.  1.
         11   -1    0    0    0    0 -0.00000000000E+00 -0.00000000000E+00 -0.12500000000E+03  0.12500000000E+03  0.00000000000E+00 0. -1.
         24    1    1    2    0    0 -0.68910080026E+02  0.64463750369E+02  0.15925131236E+02  0.12500000000E+03  0.80419002446E+02 0. -1.
        -24    1    1    2    0    0  0.68910080026E+02 -0.64463750369E+02 -0.15925131236E+02  0.12500000000E+03  0.80419002446E+02 0.  1.
</event>
<event>
 4    1  0.1599584E-001  0.1250000E+03  0.7546771E-02  0.1126479E+00
        -11   -1    0    0    0    0  0.00000000000E+00  0.00000000000E+00  0.12500000000E+03  0.12500000000E+03  0.00000000000E+00 0.  1.
         11   -1    0    0    0    0 -0.00000000000E+00 -0.00000000000E+00 -0.12500000000E+03  0.12500000000E+03  0.00000000000E+00 0. -1.
         24    1    1    2    0    0 -0.28083552388E+01 -0.24735722689E+01  0.95623107180E+02  0.12500000000E+03  0.80419002446E+02 0.  1.
        -24    1    1    2    0    0  0.28083552388E+01  0.24735722689E+01 -0.95623107180E+02  0.12500000000E+03  0.80419002446E+02 0. -1.
</event>
<event>
 4    1  0.1599584E-001  0.1250000E+03  0.7546771E-02  0.1126479E+00
        -11   -1    0    0    0    0  0.00000000000E+00  0.00000000000E+00  0.12500000000E+03  0.12500000000E+03  0.00000000000E+00 0.  1.
         11   -1    0    0    0    0 -0.00000000000E+00 -0.00000000000E+00 -0.12500000000E+03  0.12500000000E+03  0.00000000000E+00 0. -1.
         24    1    1    2    0    0 -0.12483359601E+02  0.11278086779E+01  0.94871902196E+02  0.12500000000E+03  0.80419002446E+02 0.  0.
        -24    1    1    2    0    0  0.12483359601E+02 -0.11278086779E+01 -0.94871902196E+02  0.12500000000E+03  0.80419002446E+02 0. -1.
</event>
<event>
 4    1  0.1599584E-001  0.1250000E+03  0.7546771E-02  0.1126479E+00
        -11   -1    0    0    0    0  0.00000000000E+00  0.00000000000E+00  0.12500000000E+03  0.12500000000E+03  0.00000000000E+00 0.  1.
         11   -1    0    0    0    0 -0.00000000000E+00 -0.00000000000E+00 -0.12500000000E+03  0.12500000000E+03  0.00000000000E+00 0. -1.
         24    1    1    2    0    0 -0.11444261749E+02 -0.90668429253E+02  0.28390999550E+02  0.12500000000E+03  0.80419002446E+02 0.  1.
        -24    1    1    2    0    0  0.11444261749E+02  0.90668429253E+02 -0.28390999550E+02  0.12500000000E+03  0.80419002446E+02 0. -1.
</event>
<event>
 4    1  0.1599584E-001  0.1250000E+03  0.7546771E-02  0.1126479E+00
        -11   -1    0    0    0    0  0.00000000000E+00  0.00000000000E+00  0.12500000000E+03  0.12500000000E+03  0.00000000000E+00 0.  1.
         11   -1    0    0    0    0 -0.00000000000E+00 -0.00000000000E+00 -0.12500000000E+03  0.12500000000E+03  0.00000000000E+00 0. -1.
         24    1    1    2    0    0  0.43099605424E+01  0.20374933491E+01  0.95577491632E+02  0.12500000000E+03  0.80419002446E+02 0.  0.
        -24    1    1    2    0    0 -0.43099605424E+01 -0.20374933491E+01 -0.95577491632E+02  0.12500000000E+03  0.80419002446E+02 0. -1.
</event>
<event>
 4    1  0.1599584E-001  0.1250000E+03  0.7546771E-02  0.1126479E+00
        -11   -1    0    0    0    0  0.00000000000E+00  0.00000000000E+00  0.12500000000E+03  0.12500000000E+03  0.00000000000E+00 0.  1.
         11   -1    0    0    0    0 -0.00000000000E+00 -0.00000000000E+00 -0.12500000000E+03  0.12500000000E+03  0.00000000000E+00 0. -1.
         24    1    1    2    0    0  0.21126802867E+02 -0.11303241968E+02  0.92648146054E+02  0.12500000000E+03  0.80419002446E+02 0.  1.
        -24    1    1    2    0    0 -0.21126802867E+02  0.11303241968E+02 -0.92648146054E+02  0.12500000000E+03  0.80419002446E+02 0.  0.
</event>
<event>
 4    1  0.1599584E-001  0.1250000E+03  0.7546771E-02  0.1126479E+00
        -11   -1    0    0    0    0  0.00000000000E+00  0.00000000000E+00  0.12500000000E+03  0.12500000000E+03  0.00000000000E+00 0.  1.
         11   -1    0    0    0    0 -0.00000000000E+00 -0.00000000000E+00 -0.12500000000E+03  0.12500000000E+03  0.00000000000E+00 0. -1.
         24    1    1    2    0    0  0.16568596451E+02  0.41293148388E+01  0.94160577825E+02  0.12500000000E+03  0.80419002446E+02 0.  1.
        -24    1    1    2    0    0 -0.16568596451E+02 -0.41293148388E+01 -0.94160577825E+02  0.12500000000E+03  0.80419002446E+02 0. -1.
</event>
<event>
 4    1  0.1599584E-001  0.1250000E+03  0.7546771E-02  0.1126479E+00
        -11   -1    0    0    0    0  0.00000000000E+00  0.00000000000E+00  0.12500000000E+03  0.12500000000E+03  0.00000000000E+00 0.  1.
         11   -1    0    0    0    0 -0.00000000000E+00 -0.00000000000E+00 -0.12500000000E+03  0.12500000000E+03  0.00000000000E+00 0. -1.
         24    1    1    2    0    0 -0.22161785732E+01  0.87065149056E+00  0.95666684714E+02  0.12500000000E+03  0.80419002446E+02 0.  0.
        -24    1    1    2    0    0  0.22161785732E+01 -0.87065149056E+00 -0.95666684714E+02  0.12500000000E+03  0.80419002446E+02 0. -1.
</event>
<event>
 4    1  0.1599584E-001  0.1250000E+03  0.7546771E-02  0.1126479E+00
        -11   -1    0    0    0    0  0.00000000000E+00  0.00000000000E+00  0.12500000000E+03  0.12500000000E+03  0.00000000000E+00 0.  1.
         11   -1    0    0    0    0 -0.00000000000E+00 -0.00000000000E+00 -0.12500000000E+03  0.12500000000E+03  0.00000000000E+00 0. -1.
         24    1    1    2    0    0 -0.12274580962E+01  0.36061025864E+01  0.95620465468E+02  0.12500000000E+03  0.80419002446E+02 0.  1.
        -24    1    1    2    0    0  0.12274580962E+01 -0.36061025864E+01 -0.95620465468E+02  0.12500000000E+03  0.80419002446E+02 0.  0.
</event>
<event>
 4    1  0.1599584E-001  0.1250000E+03  0.7546771E-02  0.1126479E+00
        -11   -1    0    0    0    0  0.00000000000E+00  0.00000000000E+00  0.12500000000E+03  0.12500000000E+03  0.00000000000E+00 0.  1.
         11   -1    0    0    0    0 -0.00000000000E+00 -0.00000000000E+00 -0.12500000000E+03  0.12500000000E+03  0.00000000000E+00 0. -1.
         24    1    1    2    0    0  0.41435687034E+02 -0.59230165991E+02  0.62710886793E+02  0.12500000000E+03  0.80419002446E+02 0.  1.
        -24    1    1    2    0    0 -0.41435687034E+02  0.59230165991E+02 -0.62710886793E+02  0.12500000000E+03  0.80419002446E+02 0. -1.
</event>
<event>
 4    1  0.1599584E-001  0.1250000E+03  0.7546771E-02  0.1126479E+00
        -11   -1    0    0    0    0  0.00000000000E+00  0.00000000000E+00  0.12500000000E+03  0.12500000000E+03  0.00000000000E+00 0.  1.
         11   -1    0    0    0    0 -0.00000000000E+00 -0.00000000000E+00 -0.12500000000E+03  0.12500000000E+03  0.00000000000E+00 0. -1.
         24    1    1    2    0    0  0.77501849995E+01  0.78202019501E+02  0.54609182599E+02  0.12500000000E+03  0.80419002446E+02 0.  1.
        -24    1    1    2    0    0 -0.77501849995E+01 -0.78202019501E+02 -0.54609182599E+02  0.12500000000E+03  0.80419002446E+02 0. -1.
</event>
<event>
 4    1  0.1599584E-001  0.1250000E+03  0.7546771E-02  0.1126479E+00
        -11   -1    0    0    0    0  0.00000000000E+00  0.00000000000E+00  0.12500000000E+03  0.12500000000E+03  0.00000000000E+00 0.  1.
         11   -1    0    0    0    0 -0.00000000000E+00 -0.00000000000E+00 -0.12500000000E+03  0.12500000000E+03  0.00000000000E+00 0. -1.
         24    1    1    2    0    0 -0.38359525209E+02  0.26458527125E+01  0.87631788381E+02  0.12500000000E+03  0.80419002446E+02 0.  1.
        -24    1    1    2    0    0  0.38359525209E+02 -0.26458527125E+01 -0.87631788381E+02  0.12500000000E+03  0.80419002446E+02 0. -1.
</event>
<event>
 4    1  0.1599584E-001  0.1250000E+03  0.7546771E-02  0.1126479E+00
        -11   -1    0    0    0    0  0.00000000000E+00  0.00000000000E+00  0.12500000000E+03  0.12500000000E+03  0.00000000000E+00 0.  1.
         11   -1    0    0    0    0 -0.00000000000E+00 -0.00000000000E+00 -0.12500000000E+03  0.12500000000E+03  0.00000000000E+00 0. -1.
         24    1    1    2    0    0  0.85278891830E+02  0.43418453591E+02 -0.36406274726E+00  0.12500000000E+03  0.80419002446E+02 0.  1.
        -24    1    1    2    0    0 -0.85278891830E+02 -0.43418453591E+02  0.36406274726E+00  0.12500000000E+03  0.80419002446E+02 0.  0.
</event>
<event>
 4    1  0.1599584E-001  0.1250000E+03  0.7546771E-02  0.1126479E+00
        -11   -1    0    0    0    0  0.00000000000E+00  0.00000000000E+00  0.12500000000E+03  0.12500000000E+03  0.00000000000E+00 0.  1.
         11   -1    0    0    0    0 -0.00000000000E+00 -0.00000000000E+00 -0.12500000000E+03  0.12500000000E+03  0.00000000000E+00 0. -1.
         24    1    1    2    0    0 -0.37119289898E+02 -0.13390436930E+02  0.87181641198E+02  0.12500000000E+03  0.80419002446E+02 0.  1.
        -24    1    1    2    0    0  0.37119289898E+02  0.13390436930E+02 -0.87181641198E+02  0.12500000000E+03  0.80419002446E+02 0. -1.
</event>
<event>
 4    1  0.1599584E-001  0.1250000E+03  0.7546771E-02  0.1126479E+00
        -11   -1    0    0    0    0  0.00000000000E+00  0.00000000000E+00  0.12500000000E+03  0.12500000000E+03  0.00000000000E+00 0.  1.
         11   -1    0    0    0    0 -0.00000000000E+00 -0.00000000000E+00 -0.12500000000E+03  0.12500000000E+03  0.00000000000E+00 0. -1.
         24    1    1    2    0    0  0.26223983564E+02  0.50337429590E+01  0.91895310890E+02  0.12500000000E+03  0.80419002446E+02 0.  1.
        -24    1    1    2    0    0 -0.26223983564E+02 -0.50337429590E+01 -0.91895310890E+02  0.12500000000E+03  0.80419002446E+02 0. -1.
</event>
<event>
 4    1  0.1599584E-001  0.1250000E+03  0.7546771E-02  0.1126479E+00
        -11   -1    0    0    0    0  0.00000000000E+00  0.00000000000E+00  0.12500000000E+03  0.12500000000E+03  0.00000000000E+00 0.  1.
         11   -1    0    0    0    0 -0.00000000000E+00 -0.00000000000E+00 -0.12500000000E+03  0.12500000000E+03  0.00000000000E+00 0. -1.
         24    1    1    2    0    0 -0.50378508428E+02 -0.14935562170E+01  0.81348381816E+02  0.12500000000E+03  0.80419002446E+02 0.  1.
        -24    1    1    2    0    0  0.50378508428E+02  0.14935562170E+01 -0.81348381816E+02  0.12500000000E+03  0.80419002446E+02 0. -1.
</event>
<event>
 4    1  0.1599584E-001  0.1250000E+03  0.7546771E-02  0.1126479E+00
        -11   -1    0    0    0    0  0.00000000000E+00  0.00000000000E+00  0.12500000000E+03  0.12500000000E+03  0.00000000000E+00 0.  1.
         11   -1    0    0    0    0 -0.00000000000E+00 -0.00000000000E+00 -0.12500000000E+03  0.12500000000E+03  0.00000000000E+00 0. -1.
         24    1    1    2    0    0 -0.93989137065E+02  0.17085869775E+02 -0.56479388679E+01  0.12500000000E+03  0.80419002446E+02 0. -1.
        -24    1    1    2    0    0  0.93989137065E+02 -0.17085869775E+02  0.56479388679E+01  0.12500000000E+03  0.80419002446E+02 0.  1.
</event>
<event>
 4    1  0.1599584E-001  0.1250000E+03  0.7546771E-02  0.1126479E+00
        -11   -1    0    0    0    0  0.00000000000E+00  0.00000000000E+00  0.12500000000E+03  0.12500000000E+03  0.00000000000E+00 0.  1.
         11   -1    0    0    0    0 -0.00000000000E+00 -0.00000000000E+00 -0.12500000000E+03  0.12500000000E+03  0.00000000000E+00 0. -1.
         24    1    1    2    0    0 -0.33064927050E+02  0.17248564877E+02  0.88130480848E+02  0.12500000000E+03  0.80419002446E+02 0.  1.
        -24    1    1    2    0    0  0.33064927050E+02 -0.17248564877E+02 -0.88130480848E+02  0.12500000000E+03  0.80419002446E+02 0. -1.
</event>
<event>
 4    1  0.1599584E-001  0.1250000E+03  0.7546771E-02  0.1126479E+00
        -11   -1    0    0    0    0  0.00000000000E+00  0.00000000000E+00  0.12500000000E+03  0.12500000000E+03  0.00000000000E+00 0.  1.
         11   -1    0    0    0    0 -0.00000000000E+00 -0.00000000000E+00 -0.12500000000E+03  0.12500000000E+03  0.00000000000E+00 0. -1.
         24    1    1    2    0    0 -0.69461176384E+02 -0.65280003913E+02 -0.84528166982E+01  0.12500000000E+03  0.80419002446E+02 0.  0.
        -24    1    1    2    0    0  0.69461176384E+02  0.65280003913E+02  0.84528166982E+01  0.12500000000E+03  0.80419002446E+02 0. -1.
</event>
<event>
 4    1  0.1599584E-001  0.1250000E+03  0.7546771E-02  0.1126479E+00
        -11   -1    0    0    0    0  0.00000000000E+00  0.00000000000E+00  0.12500000000E+03  0.12500000000E+03  0.00000000000E+00 0.  1.
         11   -1    0    0    0    0 -0.00000000000E+00 -0.00000000000E+00 -0.12500000000E+03  0.12500000000E+03  0.00000000000E+00 0. -1.
         24    1    1    2    0    0  0.20744598915E+02 -0.18668803538E+02  0.91536448674E+02  0.12500000000E+03  0.80419002446E+02 0.  0.
        -24    1    1    2    0    0 -0.20744598915E+02  0.18668803538E+02 -0.91536448674E+02  0.12500000000E+03  0.80419002446E+02 0.  0.
</event>
<event>
 4    1  0.1599584E-001  0.1250000E+03  0.7546771E-02  0.1126479E+00
        -11   -1    0    0    0    0  0.00000000000E+00  0.00000000000E+00  0.12500000000E+03  0.12500000000E+03  0.00000000000E+00 0.  1.
         11   -1    0    0    0    0 -0.00000000000E+00 -0.00000000000E+00 -0.12500000000E+03  0.12500000000E+03  0.00000000000E+00 0. -1.
         24    1    1    2    0    0  0.19971312218E+01  0.68873669312E+02  0.66409435986E+02  0.12500000000E+03  0.80419002446E+02 0.  1.
        -24    1    1    2    0    0 -0.19971312218E+01 -0.68873669312E+02 -0.66409435986E+02  0.12500000000E+03  0.80419002446E+02 0. -1.
</event>
<event>
 4    1  0.1599584E-001  0.1250000E+03  0.7546771E-02  0.1126479E+00
        -11   -1    0    0    0    0  0.00000000000E+00  0.00000000000E+00  0.12500000000E+03  0.12500000000E+03  0.00000000000E+00 0.  1.
         11   -1    0    0    0    0 -0.00000000000E+00 -0.00000000000E+00 -0.12500000000E+03  0.12500000000E+03  0.00000000000E+00 0. -1.
         24    1    1    2    0    0 -0.37997737695E+02 -0.30869212289E+02  0.82225590350E+02  0.12500000000E+03  0.80419002446E+02 0.  0.
        -24    1    1    2    0    0  0.37997737695E+02  0.30869212289E+02 -0.82225590350E+02  0.12500000000E+03  0.80419002446E+02 0.  1.
</event>
<event>
 4    1  0.1599584E-001  0.1250000E+03  0.7546771E-02  0.1126479E+00
        -11   -1    0    0    0    0  0.00000000000E+00  0.00000000000E+00  0.12500000000E+03  0.12500000000E+03  0.00000000000E+00 0.  1.
         11   -1    0    0    0    0 -0.00000000000E+00 -0.00000000000E+00 -0.12500000000E+03  0.12500000000E+03  0.00000000000E+00 0. -1.
         24    1    1    2    0    0  0.89216010226E+02  0.29472761142E+02 -0.18156098579E+02  0.12500000000E+03  0.80419002446E+02 0. -1.
        -24    1    1    2    0    0 -0.89216010226E+02 -0.29472761142E+02  0.18156098579E+02  0.12500000000E+03  0.80419002446E+02 0.  1.
</event>
<event>
 4    1  0.1599584E-001  0.1250000E+03  0.7546771E-02  0.1126479E+00
        -11   -1    0    0    0    0  0.00000000000E+00  0.00000000000E+00  0.12500000000E+03  0.12500000000E+03  0.00000000000E+00 0.  1.
         11   -1    0    0    0    0 -0.00000000000E+00 -0.00000000000E+00 -0.12500000000E+03  0.12500000000E+03  0.00000000000E+00 0. -1.
         24    1    1    2    0    0  0.18970881193E+02  0.29236282826E+02  0.89124236204E+02  0.12500000000E+03  0.80419002446E+02 0.  1.
        -24    1    1    2    0    0 -0.18970881193E+02 -0.29236282826E+02 -0.89124236204E+02  0.12500000000E+03  0.80419002446E+02 0. -1.
</event>
<event>
 4    1  0.1599584E-001  0.1250000E+03  0.7546771E-02  0.1126479E+00
        -11   -1    0    0    0    0  0.00000000000E+00  0.00000000000E+00  0.12500000000E+03  0.12500000000E+03  0.00000000000E+00 0.  1.
         11   -1    0    0    0    0 -0.00000000000E+00 -0.00000000000E+00 -0.12500000000E+03  0.12500000000E+03  0.00000000000E+00 0. -1.
         24    1    1    2    0    0  0.77819283604E+02  0.24539403194E+02  0.49997608302E+02  0.12500000000E+03  0.80419002446E+02 0.  1.
        -24    1    1    2    0    0 -0.77819283604E+02 -0.24539403194E+02 -0.49997608302E+02  0.12500000000E+03  0.80419002446E+02 0. -1.
</event>
<event>
 4    1  0.1599584E-001  0.1250000E+03  0.7546771E-02  0.1126479E+00
        -11   -1    0    0    0    0  0.00000000000E+00  0.00000000000E+00  0.12500000000E+03  0.12500000000E+03  0.00000000000E+00 0.  1.
         11   -1    0    0    0    0 -0.00000000000E+00 -0.00000000000E+00 -0.12500000000E+03  0.12500000000E+03  0.00000000000E+00 0. -1.
         24    1    1    2    0    0 -0.50526233496E+01  0.45111074588E+02  0.84245154119E+02  0.12500000000E+03  0.80419002446E+02 0. -1.
        -24    1    1    2    0    0  0.50526233496E+01 -0.45111074588E+02 -0.84245154119E+02  0.12500000000E+03  0.80419002446E+02 0.  0.
</event>
<event>
 4    1  0.1599584E-001  0.1250000E+03  0.7546771E-02  0.1126479E+00
        -11   -1    0    0    0    0  0.00000000000E+00  0.00000000000E+00  0.12500000000E+03  0.12500000000E+03  0.00000000000E+00 0. -1.
         11   -1    0    0    0    0 -0.00000000000E+00 -0.00000000000E+00 -0.12500000000E+03  0.12500000000E+03  0.00000000000E+00 0.  1.
         24    1    1    2    0    0  0.30877687407E+02 -0.23890879774E+02  0.87370351548E+02  0.12500000000E+03  0.80419002446E+02 0. -1.
        -24    1    1    2    0    0 -0.30877687407E+02  0.23890879774E+02 -0.87370351548E+02  0.12500000000E+03  0.80419002446E+02 0.  0.
</event>
<event>
 4    1  0.1599584E-001  0.1250000E+03  0.7546771E-02  0.1126479E+00
        -11   -1    0    0    0    0  0.00000000000E+00  0.00000000000E+00  0.12500000000E+03  0.12500000000E+03  0.00000000000E+00 0.  1.
         11   -1    0    0    0    0 -0.00000000000E+00 -0.00000000000E+00 -0.12500000000E+03  0.12500000000E+03  0.00000000000E+00 0. -1.
         24    1    1    2    0    0 -0.68951395776E+02  0.26270360235E+02  0.60937322219E+02  0.12500000000E+03  0.80419002446E+02 0.  1.
        -24    1    1    2    0    0  0.68951395776E+02 -0.26270360235E+02 -0.60937322219E+02  0.12500000000E+03  0.80419002446E+02 0. -1.
</event>
<event>
 4    1  0.1599584E-001  0.1250000E+03  0.7546771E-02  0.1126479E+00
        -11   -1    0    0    0    0  0.00000000000E+00  0.00000000000E+00  0.12500000000E+03  0.12500000000E+03  0.00000000000E+00 0.  1.
         11   -1    0    0    0    0 -0.00000000000E+00 -0.00000000000E+00 -0.12500000000E+03  0.12500000000E+03  0.00000000000E+00 0. -1.
         24    1    1    2    0    0 -0.15887158278E+02 -0.29974689693E+02  0.89481284218E+02  0.12500000000E+03  0.80419002446E+02 0.  1.
        -24    1    1    2    0    0  0.15887158278E+02  0.29974689693E+02 -0.89481284218E+02  0.12500000000E+03  0.80419002446E+02 0.  1.
</event>
<event>
 4    1  0.1599584E-001  0.1250000E+03  0.7546771E-02  0.1126479E+00
        -11   -1    0    0    0    0  0.00000000000E+00  0.00000000000E+00  0.12500000000E+03  0.12500000000E+03  0.00000000000E+00 0.  1.
         11   -1    0    0    0    0 -0.00000000000E+00 -0.00000000000E+00 -0.12500000000E+03  0.12500000000E+03  0.00000000000E+00 0. -1.
         24    1    1    2    0    0  0.41377670625E+02  0.70369945074E+02  0.49937393299E+02  0.12500000000E+03  0.80419002446E+02 0.  1.
        -24    1    1    2    0    0 -0.41377670625E+02 -0.70369945074E+02 -0.49937393299E+02  0.12500000000E+03  0.80419002446E+02 0. -1.
</event>
<event>
 4    1  0.1599584E-001  0.1250000E+03  0.7546771E-02  0.1126479E+00
        -11   -1    0    0    0    0  0.00000000000E+00  0.00000000000E+00  0.12500000000E+03  0.12500000000E+03  0.00000000000E+00 0.  1.
         11   -1    0    0    0    0 -0.00000000000E+00 -0.00000000000E+00 -0.12500000000E+03  0.12500000000E+03  0.00000000000E+00 0. -1.
         24    1    1    2    0    0 -0.65676538432E+02 -0.11110062464E+02  0.68709117716E+02  0.12500000000E+03  0.80419002446E+02 0.  1.
        -24    1    1    2    0    0  0.65676538432E+02  0.11110062464E+02 -0.68709117716E+02  0.12500000000E+03  0.80419002446E+02 0. -1.
</event>
<event>
 4    1  0.1599584E-001  0.1250000E+03  0.7546771E-02  0.1126479E+00
        -11   -1    0    0    0    0  0.00000000000E+00  0.00000000000E+00  0.12500000000E+03  0.12500000000E+03  0.00000000000E+00 0.  1.
         11   -1    0    0    0    0 -0.00000000000E+00 -0.00000000000E+00 -0.12500000000E+03  0.12500000000E+03  0.00000000000E+00 0. -1.
         24    1    1    2    0    0 -0.10594636900E+01  0.44093658488E+01  0.95588802038E+02  0.12500000000E+03  0.80419002446E+02 0.  0.
        -24    1    1    2    0    0  0.10594636900E+01 -0.44093658488E+01 -0.95588802038E+02  0.12500000000E+03  0.80419002446E+02 0. -1.
</event>
<event>
 4    1  0.1599584E-001  0.1250000E+03  0.7546771E-02  0.1126479E+00
        -11   -1    0    0    0    0  0.00000000000E+00  0.00000000000E+00  0.12500000000E+03  0.12500000000E+03  0.00000000000E+00 0.  1.
         11   -1    0    0    0    0 -0.00000000000E+00 -0.00000000000E+00 -0.12500000000E+03  0.12500000000E+03  0.00000000000E+00 0. -1.
         24    1    1    2    0    0  0.41819560426E+02 -0.81441587550E+02  0.27859939495E+02  0.12500000000E+03  0.80419002446E+02 0.  1.
        -24    1    1    2    0    0 -0.41819560426E+02  0.81441587550E+02 -0.27859939495E+02  0.12500000000E+03  0.80419002446E+02 0.  0.
</event>
<event>
 4    1  0.1599584E-001  0.1250000E+03  0.7546771E-02  0.1126479E+00
        -11   -1    0    0    0    0  0.00000000000E+00  0.00000000000E+00  0.12500000000E+03  0.12500000000E+03  0.00000000000E+00 0.  1.
         11   -1    0    0    0    0 -0.00000000000E+00 -0.00000000000E+00 -0.12500000000E+03  0.12500000000E+03  0.00000000000E+00 0. -1.
         24    1    1    2    0    0 -0.25480191771E+02  0.23045541364E+02  0.89316554435E+02  0.12500000000E+03  0.80419002446E+02 0.  1.
        -24    1    1    2    0    0  0.25480191771E+02 -0.23045541364E+02 -0.89316554435E+02  0.12500000000E+03  0.80419002446E+02 0. -1.
</event>
<event>
 4    1  0.1599584E-001  0.1250000E+03  0.7546771E-02  0.1126479E+00
        -11   -1    0    0    0    0  0.00000000000E+00  0.00000000000E+00  0.12500000000E+03  0.12500000000E+03  0.00000000000E+00 0.  1.
         11   -1    0    0    0    0 -0.00000000000E+00 -0.00000000000E+00 -0.12500000000E+03  0.12500000000E+03  0.00000000000E+00 0. -1.
         24    1    1    2    0    0 -0.72755058004E+01  0.63546040114E+02  0.71181120016E+02  0.12500000000E+03  0.80419002446E+02 0. -1.
        -24    1    1    2    0    0  0.72755058004E+01 -0.63546040114E+02 -0.71181120016E+02  0.12500000000E+03  0.80419002446E+02 0.  0.
</event>
<event>
 4    1  0.1599584E-001  0.1250000E+03  0.7546771E-02  0.1126479E+00
        -11   -1    0    0    0    0  0.00000000000E+00  0.00000000000E+00  0.12500000000E+03  0.12500000000E+03  0.00000000000E+00 0.  1.
         11   -1    0    0    0    0 -0.00000000000E+00 -0.00000000000E+00 -0.12500000000E+03  0.12500000000E+03  0.00000000000E+00 0. -1.
         24    1    1    2    0    0 -0.16328939835E+02  0.21543377799E+02  0.91798870595E+02  0.12500000000E+03  0.80419002446E+02 0.  1.
        -24    1    1    2    0    0  0.16328939835E+02 -0.21543377799E+02 -0.91798870595E+02  0.12500000000E+03  0.80419002446E+02 0. -1.
</event>
<event>
 4    1  0.1599584E-001  0.1250000E+03  0.7546771E-02  0.1126479E+00
        -11   -1    0    0    0    0  0.00000000000E+00  0.00000000000E+00  0.12500000000E+03  0.12500000000E+03  0.00000000000E+00 0.  1.
         11   -1    0    0    0    0 -0.00000000000E+00 -0.00000000000E+00 -0.12500000000E+03  0.12500000000E+03  0.00000000000E+00 0. -1.
         24    1    1    2    0    0  0.27084543953E+02  0.48450699139E+02  0.77953455840E+02  0.12500000000E+03  0.80419002446E+02 0.  1.
        -24    1    1    2    0    0 -0.27084543953E+02 -0.48450699139E+02 -0.77953455840E+02  0.12500000000E+03  0.80419002446E+02 0. -1.
</event>
<event>
 4    1  0.1599584E-001  0.1250000E+03  0.7546771E-02  0.1126479E+00
        -11   -1    0    0    0    0  0.00000000000E+00  0.00000000000E+00  0.12500000000E+03  0.12500000000E+03  0.00000000000E+00 0.  1.
         11   -1    0    0    0    0 -0.00000000000E+00 -0.00000000000E+00 -0.12500000000E+03  0.12500000000E+03  0.00000000000E+00 0. -1.
         24    1    1    2    0    0  0.55734606302E+01  0.20260556826E+01  0.95512384959E+02  0.12500000000E+03  0.80419002446E+02 0.  1.
        -24    1    1    2    0    0 -0.55734606302E+01 -0.20260556826E+01 -0.95512384959E+02  0.12500000000E+03  0.80419002446E+02 0.  0.
</event>
<event>
 4    1  0.1599584E-001  0.1250000E+03  0.7546771E-02  0.1126479E+00
        -11   -1    0    0    0    0  0.00000000000E+00  0.00000000000E+00  0.12500000000E+03  0.12500000000E+03  0.00000000000E+00 0.  1.
         11   -1    0    0    0    0 -0.00000000000E+00 -0.00000000000E+00 -0.12500000000E+03  0.12500000000E+03  0.00000000000E+00 0. -1.
         24    1    1    2    0    0  0.29446055247E+02 -0.11305251967E+02  0.90348797192E+02  0.12500000000E+03  0.80419002446E+02 0.  1.
        -24    1    1    2    0    0 -0.29446055247E+02  0.11305251967E+02 -0.90348797192E+02  0.12500000000E+03  0.80419002446E+02 0. -1.
</event>
<event>
 4    1  0.1599584E-001  0.1250000E+03  0.7546771E-02  0.1126479E+00
        -11   -1    0    0    0    0  0.00000000000E+00  0.00000000000E+00  0.12500000000E+03  0.12500000000E+03  0.00000000000E+00 0.  1.
         11   -1    0    0    0    0 -0.00000000000E+00 -0.00000000000E+00 -0.12500000000E+03  0.12500000000E+03  0.00000000000E+00 0. -1.
         24    1    1    2    0    0  0.17566123689E+02 -0.11022368698E+02  0.93422281777E+02  0.12500000000E+03  0.80419002446E+02 0.  1.
        -24    1    1    2    0    0 -0.17566123689E+02  0.11022368698E+02 -0.93422281777E+02  0.12500000000E+03  0.80419002446E+02 0. -1.
</event>
<event>
 4    1  0.1599584E-001  0.1250000E+03  0.7546771E-02  0.1126479E+00
        -11   -1    0    0    0    0  0.00000000000E+00  0.00000000000E+00  0.12500000000E+03  0.12500000000E+03  0.00000000000E+00 0.  1.
         11   -1    0    0    0    0 -0.00000000000E+00 -0.00000000000E+00 -0.12500000000E+03  0.12500000000E+03  0.00000000000E+00 0. -1.
         24    1    1    2    0    0  0.30267267140E+00  0.12108632026E+02  0.94926674151E+02  0.12500000000E+03  0.80419002446E+02 0.  1.
        -24    1    1    2    0    0 -0.30267267140E+00 -0.12108632026E+02 -0.94926674151E+02  0.12500000000E+03  0.80419002446E+02 0. -1.
</event>
<event>
 4    1  0.1599584E-001  0.1250000E+03  0.7546771E-02  0.1126479E+00
        -11   -1    0    0    0    0  0.00000000000E+00  0.00000000000E+00  0.12500000000E+03  0.12500000000E+03  0.00000000000E+00 0.  1.
         11   -1    0    0    0    0 -0.00000000000E+00 -0.00000000000E+00 -0.12500000000E+03  0.12500000000E+03  0.00000000000E+00 0. -1.
         24    1    1    2    0    0  0.47345363676E+02  0.65255955988E+02  0.51554444930E+02  0.12500000000E+03  0.80419002446E+02 0.  1.
        -24    1    1    2    0    0 -0.47345363676E+02 -0.65255955988E+02 -0.51554444930E+02  0.12500000000E+03  0.80419002446E+02 0. -1.
</event>
<event>
 4    1  0.1599584E-001  0.1250000E+03  0.7546771E-02  0.1126479E+00
        -11   -1    0    0    0    0  0.00000000000E+00  0.00000000000E+00  0.12500000000E+03  0.12500000000E+03  0.00000000000E+00 0.  1.
         11   -1    0    0    0    0 -0.00000000000E+00 -0.00000000000E+00 -0.12500000000E+03  0.12500000000E+03  0.00000000000E+00 0. -1.
         24    1    1    2    0    0  0.23170956458E+02  0.52525285711E+02  0.76563602210E+02  0.12500000000E+03  0.80419002446E+02 0.  1.
        -24    1    1    2    0    0 -0.23170956458E+02 -0.52525285711E+02 -0.76563602210E+02  0.12500000000E+03  0.80419002446E+02 0. -1.
</event>
<event>
 4    1  0.1599584E-001  0.1250000E+03  0.7546771E-02  0.1126479E+00
        -11   -1    0    0    0    0  0.00000000000E+00  0.00000000000E+00  0.12500000000E+03  0.12500000000E+03  0.00000000000E+00 0.  1.
         11   -1    0    0    0    0 -0.00000000000E+00 -0.00000000000E+00 -0.12500000000E+03  0.12500000000E+03  0.00000000000E+00 0. -1.
         24    1    1    2    0    0 -0.18045560414E+02  0.24478358195E+02  0.90735614701E+02  0.12500000000E+03  0.80419002446E+02 0.  1.
        -24    1    1    2    0    0  0.18045560414E+02 -0.24478358195E+02 -0.90735614701E+02  0.12500000000E+03  0.80419002446E+02 0. -1.
</event>
<event>
 4    1  0.1599584E-001  0.1250000E+03  0.7546771E-02  0.1126479E+00
        -11   -1    0    0    0    0  0.00000000000E+00  0.00000000000E+00  0.12500000000E+03  0.12500000000E+03  0.00000000000E+00 0.  1.
         11   -1    0    0    0    0 -0.00000000000E+00 -0.00000000000E+00 -0.12500000000E+03  0.12500000000E+03  0.00000000000E+00 0. -1.
         24    1    1    2    0    0  0.32827385049E+02  0.46425529228E+02  0.76972833340E+02  0.12500000000E+03  0.80419002446E+02 0.  1.
        -24    1    1    2    0    0 -0.32827385049E+02 -0.46425529228E+02 -0.76972833340E+02  0.12500000000E+03  0.80419002446E+02 0. -1.
</event>
<event>
 4    1  0.1599584E-001  0.1250000E+03  0.7546771E-02  0.1126479E+00
        -11   -1    0    0    0    0  0.00000000000E+00  0.00000000000E+00  0.12500000000E+03  0.12500000000E+03  0.00000000000E+00 0.  1.
         11   -1    0    0    0    0 -0.00000000000E+00 -0.00000000000E+00 -0.12500000000E+03  0.12500000000E+03  0.00000000000E+00 0. -1.
         24    1    1    2    0    0 -0.43997248655E+02 -0.14016514573E+02  0.83818634418E+02  0.12500000000E+03  0.80419002446E+02 0.  1.
        -24    1    1    2    0    0  0.43997248655E+02  0.14016514573E+02 -0.83818634418E+02  0.12500000000E+03  0.80419002446E+02 0. -1.
</event>
<event>
 4    1  0.1599584E-001  0.1250000E+03  0.7546771E-02  0.1126479E+00
        -11   -1    0    0    0    0  0.00000000000E+00  0.00000000000E+00  0.12500000000E+03  0.12500000000E+03  0.00000000000E+00 0.  1.
         11   -1    0    0    0    0 -0.00000000000E+00 -0.00000000000E+00 -0.12500000000E+03  0.12500000000E+03  0.00000000000E+00 0. -1.
         24    1    1    2    0    0 -0.40415442938E+01 -0.17333422288E+02  0.94026604943E+02  0.12500000000E+03  0.80419002446E+02 0.  1.
        -24    1    1    2    0    0  0.40415442938E+01  0.17333422288E+02 -0.94026604943E+02  0.12500000000E+03  0.80419002446E+02 0. -1.
</event>
<event>
 4    1  0.1599584E-001  0.1250000E+03  0.7546771E-02  0.1126479E+00
        -11   -1    0    0    0    0  0.00000000000E+00  0.00000000000E+00  0.12500000000E+03  0.12500000000E+03  0.00000000000E+00 0.  1.
         11   -1    0    0    0    0 -0.00000000000E+00 -0.00000000000E+00 -0.12500000000E+03  0.12500000000E+03  0.00000000000E+00 0. -1.
         24    1    1    2    0    0  0.52729873248E+02 -0.18511093268E+02  0.77683228170E+02  0.12500000000E+03  0.80419002446E+02 0.  1.
        -24    1    1    2    0    0 -0.52729873248E+02  0.18511093268E+02 -0.77683228170E+02  0.12500000000E+03  0.80419002446E+02 0. -1.
</event>
<event>
 4    1  0.1599584E-001  0.1250000E+03  0.7546771E-02  0.1126479E+00
        -11   -1    0    0    0    0  0.00000000000E+00  0.00000000000E+00  0.12500000000E+03  0.12500000000E+03  0.00000000000E+00 0.  1.
         11   -1    0    0    0    0 -0.00000000000E+00 -0.00000000000E+00 -0.12500000000E+03  0.12500000000E+03  0.00000000000E+00 0. -1.
         24    1    1    2    0    0  0.44264024679E+02 -0.67643035653E+02  0.51214254778E+02  0.12500000000E+03  0.80419002446E+02 0.  0.
        -24    1    1    2    0    0 -0.44264024679E+02  0.67643035653E+02 -0.51214254778E+02  0.12500000000E+03  0.80419002446E+02 0.  1.
</event>
<event>
 4    1  0.1599584E-001  0.1250000E+03  0.7546771E-02  0.1126479E+00
        -11   -1    0    0    0    0  0.00000000000E+00  0.00000000000E+00  0.12500000000E+03  0.12500000000E+03  0.00000000000E+00 0.  1.
         11   -1    0    0    0    0 -0.00000000000E+00 -0.00000000000E+00 -0.12500000000E+03  0.12500000000E+03  0.00000000000E+00 0. -1.
         24    1    1    2    0    0 -0.59687482179E+02 -0.10091583805E+02  0.74117126584E+02  0.12500000000E+03  0.80419002446E+02 0.  1.
        -24    1    1    2    0    0  0.59687482179E+02  0.10091583805E+02 -0.74117126584E+02  0.12500000000E+03  0.80419002446E+02 0. -1.
</event>
<event>
 4    1  0.1599584E-001  0.1250000E+03  0.7546771E-02  0.1126479E+00
        -11   -1    0    0    0    0  0.00000000000E+00  0.00000000000E+00  0.12500000000E+03  0.12500000000E+03  0.00000000000E+00 0.  1.
         11   -1    0    0    0    0 -0.00000000000E+00 -0.00000000000E+00 -0.12500000000E+03  0.12500000000E+03  0.00000000000E+00 0. -1.
         24    1    1    2    0    0 -0.54082604825E+02  0.69379002795E+02 -0.37675056365E+02  0.12500000000E+03  0.80419002446E+02 0.  0.
        -24    1    1    2    0    0  0.54082604825E+02 -0.69379002795E+02  0.37675056365E+02  0.12500000000E+03  0.80419002446E+02 0. -1.
</event>
<event>
 4    1  0.1599584E-001  0.1250000E+03  0.7546771E-02  0.1126479E+00
        -11   -1    0    0    0    0  0.00000000000E+00  0.00000000000E+00  0.12500000000E+03  0.12500000000E+03  0.00000000000E+00 0.  1.
         11   -1    0    0    0    0 -0.00000000000E+00 -0.00000000000E+00 -0.12500000000E+03  0.12500000000E+03  0.00000000000E+00 0. -1.
         24    1    1    2    0    0  0.33165764465E+02  0.61978150308E+01  0.89551120607E+02  0.12500000000E+03  0.80419002446E+02 0.  1.
        -24    1    1    2    0    0 -0.33165764465E+02 -0.61978150308E+01 -0.89551120607E+02  0.12500000000E+03  0.80419002446E+02 0. -1.
</event>
<event>
 4    1  0.1599584E-001  0.1250000E+03  0.7546771E-02  0.1126479E+00
        -11   -1    0    0    0    0  0.00000000000E+00  0.00000000000E+00  0.12500000000E+03  0.12500000000E+03  0.00000000000E+00 0.  1.
         11   -1    0    0    0    0 -0.00000000000E+00 -0.00000000000E+00 -0.12500000000E+03  0.12500000000E+03  0.00000000000E+00 0. -1.
         24    1    1    2    0    0 -0.86854107885E+01  0.10595652941E+02  0.94710505351E+02  0.12500000000E+03  0.80419002446E+02 0.  1.
        -24    1    1    2    0    0  0.86854107885E+01 -0.10595652941E+02 -0.94710505351E+02  0.12500000000E+03  0.80419002446E+02 0. -1.
</event>
<event>
 4    1  0.1599584E-001  0.1250000E+03  0.7546771E-02  0.1126479E+00
        -11   -1    0    0    0    0  0.00000000000E+00  0.00000000000E+00  0.12500000000E+03  0.12500000000E+03  0.00000000000E+00 0.  1.
         11   -1    0    0    0    0 -0.00000000000E+00 -0.00000000000E+00 -0.12500000000E+03  0.12500000000E+03  0.00000000000E+00 0. -1.
         24    1    1    2    0    0  0.67170725170E+02  0.95541371282E+01  0.67487748440E+02  0.12500000000E+03  0.80419002446E+02 0.  1.
        -24    1    1    2    0    0 -0.67170725170E+02 -0.95541371282E+01 -0.67487748440E+02  0.12500000000E+03  0.80419002446E+02 0. -1.
</event>
<event>
 4    1  0.1599584E-001  0.1250000E+03  0.7546771E-02  0.1126479E+00
        -11   -1    0    0    0    0  0.00000000000E+00  0.00000000000E+00  0.12500000000E+03  0.12500000000E+03  0.00000000000E+00 0.  1.
         11   -1    0    0    0    0 -0.00000000000E+00 -0.00000000000E+00 -0.12500000000E+03  0.12500000000E+03  0.00000000000E+00 0. -1.
         24    1    1    2    0    0  0.41058150213E+02  0.66166874840E+02 -0.55623349599E+02  0.12500000000E+03  0.80419002446E+02 0.  1.
        -24    1    1    2    0    0 -0.41058150213E+02 -0.66166874840E+02  0.55623349599E+02  0.12500000000E+03  0.80419002446E+02 0.  0.
</event>
<event>
 4    1  0.1599584E-001  0.1250000E+03  0.7546771E-02  0.1126479E+00
        -11   -1    0    0    0    0  0.00000000000E+00  0.00000000000E+00  0.12500000000E+03  0.12500000000E+03  0.00000000000E+00 0.  1.
         11   -1    0    0    0    0 -0.00000000000E+00 -0.00000000000E+00 -0.12500000000E+03  0.12500000000E+03  0.00000000000E+00 0. -1.
         24    1    1    2    0    0 -0.40837623820E+02 -0.54364040227E+02  0.67339614319E+02  0.12500000000E+03  0.80419002446E+02 0.  1.
        -24    1    1    2    0    0  0.40837623820E+02  0.54364040227E+02 -0.67339614319E+02  0.12500000000E+03  0.80419002446E+02 0. -1.
</event>
<event>
 4    1  0.1599584E-001  0.1250000E+03  0.7546771E-02  0.1126479E+00
        -11   -1    0    0    0    0  0.00000000000E+00  0.00000000000E+00  0.12500000000E+03  0.12500000000E+03  0.00000000000E+00 0.  1.
         11   -1    0    0    0    0 -0.00000000000E+00 -0.00000000000E+00 -0.12500000000E+03  0.12500000000E+03  0.00000000000E+00 0. -1.
         24    1    1    2    0    0  0.19466587370E+02  0.21396652261E+02  0.91219621211E+02  0.12500000000E+03  0.80419002446E+02 0.  0.
        -24    1    1    2    0    0 -0.19466587370E+02 -0.21396652261E+02 -0.91219621211E+02  0.12500000000E+03  0.80419002446E+02 0.  0.
</event>
<event>
 4    1  0.1599584E-001  0.1250000E+03  0.7546771E-02  0.1126479E+00
        -11   -1    0    0    0    0  0.00000000000E+00  0.00000000000E+00  0.12500000000E+03  0.12500000000E+03  0.00000000000E+00 0.  1.
         11   -1    0    0    0    0 -0.00000000000E+00 -0.00000000000E+00 -0.12500000000E+03  0.12500000000E+03  0.00000000000E+00 0. -1.
         24    1    1    2    0    0  0.14862464982E+02 -0.15123999841E+02  0.93317500015E+02  0.12500000000E+03  0.80419002446E+02 0.  1.
        -24    1    1    2    0    0 -0.14862464982E+02  0.15123999841E+02 -0.93317500015E+02  0.12500000000E+03  0.80419002446E+02 0. -1.
</event>
<event>
 4    1  0.1599584E-001  0.1250000E+03  0.7546771E-02  0.1126479E+00
        -11   -1    0    0    0    0  0.00000000000E+00  0.00000000000E+00  0.12500000000E+03  0.12500000000E+03  0.00000000000E+00 0.  1.
         11   -1    0    0    0    0 -0.00000000000E+00 -0.00000000000E+00 -0.12500000000E+03  0.12500000000E+03  0.00000000000E+00 0. -1.
         24    1    1    2    0    0  0.48751711392E+02 -0.73840890967E+02 -0.36449657107E+02  0.12500000000E+03  0.80419002446E+02 0.  0.
        -24    1    1    2    0    0 -0.48751711392E+02  0.73840890967E+02  0.36449657107E+02  0.12500000000E+03  0.80419002446E+02 0.  0.
</event>
<event>
 4    1  0.1599584E-001  0.1250000E+03  0.7546771E-02  0.1126479E+00
        -11   -1    0    0    0    0  0.00000000000E+00  0.00000000000E+00  0.12500000000E+03  0.12500000000E+03  0.00000000000E+00 0.  1.
         11   -1    0    0    0    0 -0.00000000000E+00 -0.00000000000E+00 -0.12500000000E+03  0.12500000000E+03  0.00000000000E+00 0. -1.
         24    1    1    2    0    0  0.52506012056E+01 -0.56584623181E+02  0.76996075563E+02  0.12500000000E+03  0.80419002446E+02 0.  1.
        -24    1    1    2    0    0 -0.52506012056E+01  0.56584623181E+02 -0.76996075563E+02  0.12500000000E+03  0.80419002446E+02 0. -1.
</event>
<event>
 4    1  0.1599584E-001  0.1250000E+03  0.7546771E-02  0.1126479E+00
        -11   -1    0    0    0    0  0.00000000000E+00  0.00000000000E+00  0.12500000000E+03  0.12500000000E+03  0.00000000000E+00 0.  1.
         11   -1    0    0    0    0 -0.00000000000E+00 -0.00000000000E+00 -0.12500000000E+03  0.12500000000E+03  0.00000000000E+00 0. -1.
         24    1    1    2    0    0  0.45804042912E+02 -0.25429275619E+02  0.80081993232E+02  0.12500000000E+03  0.80419002446E+02 0.  1.
        -24    1    1    2    0    0 -0.45804042912E+02  0.25429275619E+02 -0.80081993232E+02  0.12500000000E+03  0.80419002446E+02 0. -1.
</event>
<event>
 4    1  0.1599584E-001  0.1250000E+03  0.7546771E-02  0.1126479E+00
        -11   -1    0    0    0    0  0.00000000000E+00  0.00000000000E+00  0.12500000000E+03  0.12500000000E+03  0.00000000000E+00 0.  1.
         11   -1    0    0    0    0 -0.00000000000E+00 -0.00000000000E+00 -0.12500000000E+03  0.12500000000E+03  0.00000000000E+00 0. -1.
         24    1    1    2    0    0  0.32584377618E+02  0.42936150054E+02  0.79072937212E+02  0.12500000000E+03  0.80419002446E+02 0. -1.
        -24    1    1    2    0    0 -0.32584377618E+02 -0.42936150054E+02 -0.79072937212E+02  0.12500000000E+03  0.80419002446E+02 0.  1.
</event>
<event>
 4    1  0.1599584E-001  0.1250000E+03  0.7546771E-02  0.1126479E+00
        -11   -1    0    0    0    0  0.00000000000E+00  0.00000000000E+00  0.12500000000E+03  0.12500000000E+03  0.00000000000E+00 0.  1.
         11   -1    0    0    0    0 -0.00000000000E+00 -0.00000000000E+00 -0.12500000000E+03  0.12500000000E+03  0.00000000000E+00 0. -1.
         24    1    1    2    0    0 -0.27971554363E+02 -0.40990141277E+02  0.81824107146E+02  0.12500000000E+03  0.80419002446E+02 0.  1.
        -24    1    1    2    0    0  0.27971554363E+02  0.40990141277E+02 -0.81824107146E+02  0.12500000000E+03  0.80419002446E+02 0.  1.
</event>
<event>
 4    1  0.1599584E-001  0.1250000E+03  0.7546771E-02  0.1126479E+00
        -11   -1    0    0    0    0  0.00000000000E+00  0.00000000000E+00  0.12500000000E+03  0.12500000000E+03  0.00000000000E+00 0.  1.
         11   -1    0    0    0    0 -0.00000000000E+00 -0.00000000000E+00 -0.12500000000E+03  0.12500000000E+03  0.00000000000E+00 0. -1.
         24    1    1    2    0    0  0.73872983957E+02  0.49926111678E+02  0.34755570195E+02  0.12500000000E+03  0.80419002446E+02 0.  0.
        -24    1    1    2    0    0 -0.73872983957E+02 -0.49926111678E+02 -0.34755570195E+02  0.12500000000E+03  0.80419002446E+02 0. -1.
</event>
<event>
 4    1  0.1599584E-001  0.1250000E+03  0.7546771E-02  0.1126479E+00
        -11   -1    0    0    0    0  0.00000000000E+00  0.00000000000E+00  0.12500000000E+03  0.12500000000E+03  0.00000000000E+00 0.  1.
         11   -1    0    0    0    0 -0.00000000000E+00 -0.00000000000E+00 -0.12500000000E+03  0.12500000000E+03  0.00000000000E+00 0. -1.
         24    1    1    2    0    0  0.17885739212E+02 -0.69614389194E+01  0.93751921296E+02  0.12500000000E+03  0.80419002446E+02 0.  1.
        -24    1    1    2    0    0 -0.17885739212E+02  0.69614389194E+01 -0.93751921296E+02  0.12500000000E+03  0.80419002446E+02 0. -1.
</event>
<event>
 4    1  0.1599584E-001  0.1250000E+03  0.7546771E-02  0.1126479E+00
        -11   -1    0    0    0    0  0.00000000000E+00  0.00000000000E+00  0.12500000000E+03  0.12500000000E+03  0.00000000000E+00 0.  1.
         11   -1    0    0    0    0 -0.00000000000E+00 -0.00000000000E+00 -0.12500000000E+03  0.12500000000E+03  0.00000000000E+00 0. -1.
         24    1    1    2    0    0  0.95553906639E+02  0.44716883878E+01 -0.26905342753E+01  0.12500000000E+03  0.80419002446E+02 0.  1.
        -24    1    1    2    0    0 -0.95553906639E+02 -0.44716883878E+01  0.26905342753E+01  0.12500000000E+03  0.80419002446E+02 0. -1.
</event>
<event>
 4    1  0.1599584E-001  0.1250000E+03  0.7546771E-02  0.1126479E+00
        -11   -1    0    0    0    0  0.00000000000E+00  0.00000000000E+00  0.12500000000E+03  0.12500000000E+03  0.00000000000E+00 0.  1.
         11   -1    0    0    0    0 -0.00000000000E+00 -0.00000000000E+00 -0.12500000000E+03  0.12500000000E+03  0.00000000000E+00 0. -1.
         24    1    1    2    0    0 -0.27306010361E+01 -0.76139750300E+02 -0.57905667148E+02  0.12500000000E+03  0.80419002446E+02 0. -1.
        -24    1    1    2    0    0  0.27306010361E+01  0.76139750300E+02  0.57905667148E+02  0.12500000000E+03  0.80419002446E+02 0.  1.
</event>
<event>
 4    1  0.1599584E-001  0.1250000E+03  0.7546771E-02  0.1126479E+00
        -11   -1    0    0    0    0  0.00000000000E+00  0.00000000000E+00  0.12500000000E+03  0.12500000000E+03  0.00000000000E+00 0.  1.
         11   -1    0    0    0    0 -0.00000000000E+00 -0.00000000000E+00 -0.12500000000E+03  0.12500000000E+03  0.00000000000E+00 0. -1.
         24    1    1    2    0    0 -0.57066541089E+02 -0.24219682716E+02  0.72901309336E+02  0.12500000000E+03  0.80419002446E+02 0.  1.
        -24    1    1    2    0    0  0.57066541089E+02  0.24219682716E+02 -0.72901309336E+02  0.12500000000E+03  0.80419002446E+02 0. -1.
</event>
<event>
 4    1  0.1599584E-001  0.1250000E+03  0.7546771E-02  0.1126479E+00
        -11   -1    0    0    0    0  0.00000000000E+00  0.00000000000E+00  0.12500000000E+03  0.12500000000E+03  0.00000000000E+00 0.  1.
         11   -1    0    0    0    0 -0.00000000000E+00 -0.00000000000E+00 -0.12500000000E+03  0.12500000000E+03  0.00000000000E+00 0. -1.
         24    1    1    2    0    0 -0.40637188000E+02 -0.36675907369E+02  0.78493826609E+02  0.12500000000E+03  0.80419002446E+02 0.  1.
        -24    1    1    2    0    0  0.40637188000E+02  0.36675907369E+02 -0.78493826609E+02  0.12500000000E+03  0.80419002446E+02 0. -1.
</event>
<event>
 4    1  0.1599584E-001  0.1250000E+03  0.7546771E-02  0.1126479E+00
        -11   -1    0    0    0    0  0.00000000000E+00  0.00000000000E+00  0.12500000000E+03  0.12500000000E+03  0.00000000000E+00 0.  1.
         11   -1    0    0    0    0 -0.00000000000E+00 -0.00000000000E+00 -0.12500000000E+03  0.12500000000E+03  0.00000000000E+00 0. -1.
         24    1    1    2    0    0  0.36120372249E+02 -0.62628201864E+02  0.62696180788E+02  0.12500000000E+03  0.80419002446E+02 0.  1.
        -24    1    1    2    0    0 -0.36120372249E+02  0.62628201864E+02 -0.62696180788E+02  0.12500000000E+03  0.80419002446E+02 0. -1.
</event>
<event>
 4    1  0.1599584E-001  0.1250000E+03  0.7546771E-02  0.1126479E+00
        -11   -1    0    0    0    0  0.00000000000E+00  0.00000000000E+00  0.12500000000E+03  0.12500000000E+03  0.00000000000E+00 0.  1.
         11   -1    0    0    0    0 -0.00000000000E+00 -0.00000000000E+00 -0.12500000000E+03  0.12500000000E+03  0.00000000000E+00 0. -1.
         24    1    1    2    0    0 -0.39927210562E+02  0.60512190704E+02  0.62465003631E+02  0.12500000000E+03  0.80419002446E+02 0. -1.
        -24    1    1    2    0    0  0.39927210562E+02 -0.60512190704E+02 -0.62465003631E+02  0.12500000000E+03  0.80419002446E+02 0.  1.
</event>
<event>
 4    1  0.1599584E-001  0.1250000E+03  0.7546771E-02  0.1126479E+00
        -11   -1    0    0    0    0  0.00000000000E+00  0.00000000000E+00  0.12500000000E+03  0.12500000000E+03  0.00000000000E+00 0.  1.
         11   -1    0    0    0    0 -0.00000000000E+00 -0.00000000000E+00 -0.12500000000E+03  0.12500000000E+03  0.00000000000E+00 0. -1.
         24    1    1    2    0    0  0.15389834284E+01  0.23481019771E+02  0.92758057796E+02  0.12500000000E+03  0.80419002446E+02 0.  0.
        -24    1    1    2    0    0 -0.15389834284E+01 -0.23481019771E+02 -0.92758057796E+02  0.12500000000E+03  0.80419002446E+02 0. -1.
</event>
<event>
 4    1  0.1599584E-001  0.1250000E+03  0.7546771E-02  0.1126479E+00
        -11   -1    0    0    0    0  0.00000000000E+00  0.00000000000E+00  0.12500000000E+03  0.12500000000E+03  0.00000000000E+00 0.  1.
         11   -1    0    0    0    0 -0.00000000000E+00 -0.00000000000E+00 -0.12500000000E+03  0.12500000000E+03  0.00000000000E+00 0. -1.
         24    1    1    2    0    0  0.63857054568E+02 -0.57085969397E+02  0.42676137659E+02  0.12500000000E+03  0.80419002446E+02 0.  1.
        -24    1    1    2    0    0 -0.63857054568E+02  0.57085969397E+02 -0.42676137659E+02  0.12500000000E+03  0.80419002446E+02 0.  0.
</event>
<event>
 4    1  0.1599584E-001  0.1250000E+03  0.7546771E-02  0.1126479E+00
        -11   -1    0    0    0    0  0.00000000000E+00  0.00000000000E+00  0.12500000000E+03  0.12500000000E+03  0.00000000000E+00 0.  1.
         11   -1    0    0    0    0 -0.00000000000E+00 -0.00000000000E+00 -0.12500000000E+03  0.12500000000E+03  0.00000000000E+00 0. -1.
         24    1    1    2    0    0 -0.20715837349E+02  0.29257504400E+02  0.88727879299E+02  0.12500000000E+03  0.80419002446E+02 0.  1.
        -24    1    1    2    0    0  0.20715837349E+02 -0.29257504400E+02 -0.88727879299E+02  0.12500000000E+03  0.80419002446E+02 0. -1.
</event>
<event>
 4    1  0.1599584E-001  0.1250000E+03  0.7546771E-02  0.1126479E+00
        -11   -1    0    0    0    0  0.00000000000E+00  0.00000000000E+00  0.12500000000E+03  0.12500000000E+03  0.00000000000E+00 0.  1.
         11   -1    0    0    0    0 -0.00000000000E+00 -0.00000000000E+00 -0.12500000000E+03  0.12500000000E+03  0.00000000000E+00 0. -1.
         24    1    1    2    0    0  0.28057698937E+02 -0.75035409820E+02  0.52347271649E+02  0.12500000000E+03  0.80419002446E+02 0.  1.
        -24    1    1    2    0    0 -0.28057698937E+02  0.75035409820E+02 -0.52347271649E+02  0.12500000000E+03  0.80419002446E+02 0. -1.
</event>
<event>
 4    1  0.1599584E-001  0.1250000E+03  0.7546771E-02  0.1126479E+00
        -11   -1    0    0    0    0  0.00000000000E+00  0.00000000000E+00  0.12500000000E+03  0.12500000000E+03  0.00000000000E+00 0.  1.
         11   -1    0    0    0    0 -0.00000000000E+00 -0.00000000000E+00 -0.12500000000E+03  0.12500000000E+03  0.00000000000E+00 0. -1.
         24    1    1    2    0    0 -0.84743156815E+02  0.31321196955E+02  0.31549390484E+02  0.12500000000E+03  0.80419002446E+02 0.  1.
        -24    1    1    2    0    0  0.84743156815E+02 -0.31321196955E+02 -0.31549390484E+02  0.12500000000E+03  0.80419002446E+02 0. -1.
</event>
<event>
 4    1  0.1599584E-001  0.1250000E+03  0.7546771E-02  0.1126479E+00
        -11   -1    0    0    0    0  0.00000000000E+00  0.00000000000E+00  0.12500000000E+03  0.12500000000E+03  0.00000000000E+00 0.  1.
         11   -1    0    0    0    0 -0.00000000000E+00 -0.00000000000E+00 -0.12500000000E+03  0.12500000000E+03  0.00000000000E+00 0. -1.
         24    1    1    2    0    0 -0.36422553022E+02 -0.53341411855E+02  0.70610731892E+02  0.12500000000E+03  0.80419002446E+02 0.  1.
        -24    1    1    2    0    0  0.36422553022E+02  0.53341411855E+02 -0.70610731892E+02  0.12500000000E+03  0.80419002446E+02 0. -1.
</event>
<event>
 4    1  0.1599584E-001  0.1250000E+03  0.7546771E-02  0.1126479E+00
        -11   -1    0    0    0    0  0.00000000000E+00  0.00000000000E+00  0.12500000000E+03  0.12500000000E+03  0.00000000000E+00 0.  1.
         11   -1    0    0    0    0 -0.00000000000E+00 -0.00000000000E+00 -0.12500000000E+03  0.12500000000E+03  0.00000000000E+00 0. -1.
         24    1    1    2    0    0  0.43163823356E+02 -0.41334999194E+02  0.74740124703E+02  0.12500000000E+03  0.80419002446E+02 0.  1.
        -24    1    1    2    0    0 -0.43163823356E+02  0.41334999194E+02 -0.74740124703E+02  0.12500000000E+03  0.80419002446E+02 0. -1.
</event>
<event>
 4    1  0.1599584E-001  0.1250000E+03  0.7546771E-02  0.1126479E+00
        -11   -1    0    0    0    0  0.00000000000E+00  0.00000000000E+00  0.12500000000E+03  0.12500000000E+03  0.00000000000E+00 0.  1.
         11   -1    0    0    0    0 -0.00000000000E+00 -0.00000000000E+00 -0.12500000000E+03  0.12500000000E+03  0.00000000000E+00 0. -1.
         24    1    1    2    0    0  0.70475803164E+02 -0.39293077766E+02  0.51448996624E+02  0.12500000000E+03  0.80419002446E+02 0.  1.
        -24    1    1    2    0    0 -0.70475803164E+02  0.39293077766E+02 -0.51448996624E+02  0.12500000000E+03  0.80419002446E+02 0. -1.
</event>
<event>
 4    1  0.1599584E-001  0.1250000E+03  0.7546771E-02  0.1126479E+00
        -11   -1    0    0    0    0  0.00000000000E+00  0.00000000000E+00  0.12500000000E+03  0.12500000000E+03  0.00000000000E+00 0.  1.
         11   -1    0    0    0    0 -0.00000000000E+00 -0.00000000000E+00 -0.12500000000E+03  0.12500000000E+03  0.00000000000E+00 0. -1.
         24    1    1    2    0    0  0.25470720781E+02  0.16524797007E+02  0.90752176351E+02  0.12500000000E+03  0.80419002446E+02 0.  1.
        -24    1    1    2    0    0 -0.25470720781E+02 -0.16524797007E+02 -0.90752176351E+02  0.12500000000E+03  0.80419002446E+02 0. -1.
</event>
<event>
 4    1  0.1599584E-001  0.1250000E+03  0.7546771E-02  0.1126479E+00
        -11   -1    0    0    0    0  0.00000000000E+00  0.00000000000E+00  0.12500000000E+03  0.12500000000E+03  0.00000000000E+00 0.  1.
         11   -1    0    0    0    0 -0.00000000000E+00 -0.00000000000E+00 -0.12500000000E+03  0.12500000000E+03  0.00000000000E+00 0. -1.
         24    1    1    2    0    0  0.22752457982E+02  0.92348979897E+02  0.10572398662E+02  0.12500000000E+03  0.80419002446E+02 0.  0.
        -24    1    1    2    0    0 -0.22752457982E+02 -0.92348979897E+02 -0.10572398662E+02  0.12500000000E+03  0.80419002446E+02 0.  0.
</event>
<event>
 4    1  0.1599584E-001  0.1250000E+03  0.7546771E-02  0.1126479E+00
        -11   -1    0    0    0    0  0.00000000000E+00  0.00000000000E+00  0.12500000000E+03  0.12500000000E+03  0.00000000000E+00 0.  1.
         11   -1    0    0    0    0 -0.00000000000E+00 -0.00000000000E+00 -0.12500000000E+03  0.12500000000E+03  0.00000000000E+00 0. -1.
         24    1    1    2    0    0 -0.63995834069E+02 -0.60763639362E+02  0.37014826745E+02  0.12500000000E+03  0.80419002446E+02 0.  0.
        -24    1    1    2    0    0  0.63995834069E+02  0.60763639362E+02 -0.37014826745E+02  0.12500000000E+03  0.80419002446E+02 0.  1.
</event>
<event>
 4    1  0.1599584E-001  0.1250000E+03  0.7546771E-02  0.1126479E+00
        -11   -1    0    0    0    0  0.00000000000E+00  0.00000000000E+00  0.12500000000E+03  0.12500000000E+03  0.00000000000E+00 0.  1.
         11   -1    0    0    0    0 -0.00000000000E+00 -0.00000000000E+00 -0.12500000000E+03  0.12500000000E+03  0.00000000000E+00 0. -1.
         24    1    1    2    0    0 -0.42503532190E+01  0.21452472256E+02  0.93163887732E+02  0.12500000000E+03  0.80419002446E+02 0.  1.
        -24    1    1    2    0    0  0.42503532190E+01 -0.21452472256E+02 -0.93163887732E+02  0.12500000000E+03  0.80419002446E+02 0. -1.
</event>
<event>
 4    1  0.1599584E-001  0.1250000E+03  0.7546771E-02  0.1126479E+00
        -11   -1    0    0    0    0  0.00000000000E+00  0.00000000000E+00  0.12500000000E+03  0.12500000000E+03  0.00000000000E+00 0.  1.
         11   -1    0    0    0    0 -0.00000000000E+00 -0.00000000000E+00 -0.12500000000E+03  0.12500000000E+03  0.00000000000E+00 0. -1.
         24    1    1    2    0    0 -0.17423039722E+02  0.49562270076E+01  0.93966257488E+02  0.12500000000E+03  0.80419002446E+02 0.  1.
        -24    1    1    2    0    0  0.17423039722E+02 -0.49562270076E+01 -0.93966257488E+02  0.12500000000E+03  0.80419002446E+02 0. -1.
</event>
<event>
 4    1  0.1599584E-001  0.1250000E+03  0.7546771E-02  0.1126479E+00
        -11   -1    0    0    0    0  0.00000000000E+00  0.00000000000E+00  0.12500000000E+03  0.12500000000E+03  0.00000000000E+00 0.  1.
         11   -1    0    0    0    0 -0.00000000000E+00 -0.00000000000E+00 -0.12500000000E+03  0.12500000000E+03  0.00000000000E+00 0. -1.
         24    1    1    2    0    0  0.12622444302E+02  0.44040745455E+02  0.84017085674E+02  0.12500000000E+03  0.80419002446E+02 0.  1.
        -24    1    1    2    0    0 -0.12622444302E+02 -0.44040745455E+02 -0.84017085674E+02  0.12500000000E+03  0.80419002446E+02 0. -1.
</event>
<event>
 4    1  0.1599584E-001  0.1250000E+03  0.7546771E-02  0.1126479E+00
        -11   -1    0    0    0    0  0.00000000000E+00  0.00000000000E+00  0.12500000000E+03  0.12500000000E+03  0.00000000000E+00 0.  1.
         11   -1    0    0    0    0 -0.00000000000E+00 -0.00000000000E+00 -0.12500000000E+03  0.12500000000E+03  0.00000000000E+00 0. -1.
         24    1    1    2    0    0  0.35264172289E+02 -0.40956461818E+02  0.78973352681E+02  0.12500000000E+03  0.80419002446E+02 0. -1.
        -24    1    1    2    0    0 -0.35264172289E+02  0.40956461818E+02 -0.78973352681E+02  0.12500000000E+03  0.80419002446E+02 0. -1.
</event>
<event>
 4    1  0.1599584E-001  0.1250000E+03  0.7546771E-02  0.1126479E+00
        -11   -1    0    0    0    0  0.00000000000E+00  0.00000000000E+00  0.12500000000E+03  0.12500000000E+03  0.00000000000E+00 0. -1.
         11   -1    0    0    0    0 -0.00000000000E+00 -0.00000000000E+00 -0.12500000000E+03  0.12500000000E+03  0.00000000000E+00 0.  1.
         24    1    1    2    0    0 -0.49520661485E+02  0.50643253552E+02 -0.64348651900E+02  0.12500000000E+03  0.80419002446E+02 0.  0.
        -24    1    1    2    0    0  0.49520661485E+02 -0.50643253552E+02  0.64348651900E+02  0.12500000000E+03  0.80419002446E+02 0.  1.
</event>
<event>
 4    1  0.1599584E-001  0.1250000E+03  0.7546771E-02  0.1126479E+00
        -11   -1    0    0    0    0  0.00000000000E+00  0.00000000000E+00  0.12500000000E+03  0.12500000000E+03  0.00000000000E+00 0.  1.
         11   -1    0    0    0    0 -0.00000000000E+00 -0.00000000000E+00 -0.12500000000E+03  0.12500000000E+03  0.00000000000E+00 0. -1.
         24    1    1    2    0    0 -0.40401914188E+02  0.11728889118E+02  0.85952908826E+02  0.12500000000E+03  0.80419002446E+02 0.  1.
        -24    1    1    2    0    0  0.40401914188E+02 -0.11728889118E+02 -0.85952908826E+02  0.12500000000E+03  0.80419002446E+02 0. -1.
</event>
<event>
 4    1  0.1599584E-001  0.1250000E+03  0.7546771E-02  0.1126479E+00
        -11   -1    0    0    0    0  0.00000000000E+00  0.00000000000E+00  0.12500000000E+03  0.12500000000E+03  0.00000000000E+00 0.  1.
         11   -1    0    0    0    0 -0.00000000000E+00 -0.00000000000E+00 -0.12500000000E+03  0.12500000000E+03  0.00000000000E+00 0. -1.
         24    1    1    2    0    0  0.24746615991E+02  0.63304256364E+01  0.92224263369E+02  0.12500000000E+03  0.80419002446E+02 0.  1.
        -24    1    1    2    0    0 -0.24746615991E+02 -0.63304256364E+01 -0.92224263369E+02  0.12500000000E+03  0.80419002446E+02 0. -1.
</event>
<event>
 4    1  0.1599584E-001  0.1250000E+03  0.7546771E-02  0.1126479E+00
        -11   -1    0    0    0    0  0.00000000000E+00  0.00000000000E+00  0.12500000000E+03  0.12500000000E+03  0.00000000000E+00 0.  1.
         11   -1    0    0    0    0 -0.00000000000E+00 -0.00000000000E+00 -0.12500000000E+03  0.12500000000E+03  0.00000000000E+00 0. -1.
         24    1    1    2    0    0  0.96735732723E+01  0.43719556434E+02  0.84574265655E+02  0.12500000000E+03  0.80419002446E+02 0.  1.
        -24    1    1    2    0    0 -0.96735732723E+01 -0.43719556434E+02 -0.84574265655E+02  0.12500000000E+03  0.80419002446E+02 0. -1.
</event>
<event>
 4    1  0.1599584E-001  0.1250000E+03  0.7546771E-02  0.1126479E+00
        -11   -1    0    0    0    0  0.00000000000E+00  0.00000000000E+00  0.12500000000E+03  0.12500000000E+03  0.00000000000E+00 0.  1.
         11   -1    0    0    0    0 -0.00000000000E+00 -0.00000000000E+00 -0.12500000000E+03  0.12500000000E+03  0.00000000000E+00 0. -1.
         24    1    1    2    0    0  0.88244799533E+02 -0.27863470675E+02 -0.24377579925E+02  0.12500000000E+03  0.80419002446E+02 0.  1.
        -24    1    1    2    0    0 -0.88244799533E+02  0.27863470675E+02  0.24377579925E+02  0.12500000000E+03  0.80419002446E+02 0. -1.
</event>
<event>
 4    1  0.1599584E-001  0.1250000E+03  0.7546771E-02  0.1126479E+00
        -11   -1    0    0    0    0  0.00000000000E+00  0.00000000000E+00  0.12500000000E+03  0.12500000000E+03  0.00000000000E+00 0.  1.
         11   -1    0    0    0    0 -0.00000000000E+00 -0.00000000000E+00 -0.12500000000E+03  0.12500000000E+03  0.00000000000E+00 0. -1.
         24    1    1    2    0    0 -0.51126345830E+01 -0.45240629613E+02  0.84172028878E+02  0.12500000000E+03  0.80419002446E+02 0.  1.
        -24    1    1    2    0    0  0.51126345830E+01  0.45240629613E+02 -0.84172028878E+02  0.12500000000E+03  0.80419002446E+02 0. -1.
</event>
<event>
 4    1  0.1599584E-001  0.1250000E+03  0.7546771E-02  0.1126479E+00
        -11   -1    0    0    0    0  0.00000000000E+00  0.00000000000E+00  0.12500000000E+03  0.12500000000E+03  0.00000000000E+00 0.  1.
         11   -1    0    0    0    0 -0.00000000000E+00 -0.00000000000E+00 -0.12500000000E+03  0.12500000000E+03  0.00000000000E+00 0. -1.
         24    1    1    2    0    0  0.25748808392E+02 -0.32009050548E+01  0.92111547153E+02  0.12500000000E+03  0.80419002446E+02 0.  1.
        -24    1    1    2    0    0 -0.25748808392E+02  0.32009050548E+01 -0.92111547153E+02  0.12500000000E+03  0.80419002446E+02 0. -1.
</event>
<event>
 4    1  0.1599584E-001  0.1250000E+03  0.7546771E-02  0.1126479E+00
        -11   -1    0    0    0    0  0.00000000000E+00  0.00000000000E+00  0.12500000000E+03  0.12500000000E+03  0.00000000000E+00 0.  1.
         11   -1    0    0    0    0 -0.00000000000E+00 -0.00000000000E+00 -0.12500000000E+03  0.12500000000E+03  0.00000000000E+00 0. -1.
         24    1    1    2    0    0  0.60398717260E+02 -0.72263075704E+02 -0.16965461645E+02  0.12500000000E+03  0.80419002446E+02 0.  0.
        -24    1    1    2    0    0 -0.60398717260E+02  0.72263075704E+02  0.16965461645E+02  0.12500000000E+03  0.80419002446E+02 0.  0.
</event>
<event>
 4    1  0.1599584E-001  0.1250000E+03  0.7546771E-02  0.1126479E+00
        -11   -1    0    0    0    0  0.00000000000E+00  0.00000000000E+00  0.12500000000E+03  0.12500000000E+03  0.00000000000E+00 0.  1.
         11   -1    0    0    0    0 -0.00000000000E+00 -0.00000000000E+00 -0.12500000000E+03  0.12500000000E+03  0.00000000000E+00 0. -1.
         24    1    1    2    0    0  0.24947673766E+02  0.77044183991E+02  0.50986187663E+02  0.12500000000E+03  0.80419002446E+02 0. -1.
        -24    1    1    2    0    0 -0.24947673766E+02 -0.77044183991E+02 -0.50986187663E+02  0.12500000000E+03  0.80419002446E+02 0.  1.
</event>
<event>
 4    1  0.1599584E-001  0.1250000E+03  0.7546771E-02  0.1126479E+00
        -11   -1    0    0    0    0  0.00000000000E+00  0.00000000000E+00  0.12500000000E+03  0.12500000000E+03  0.00000000000E+00 0.  1.
         11   -1    0    0    0    0 -0.00000000000E+00 -0.00000000000E+00 -0.12500000000E+03  0.12500000000E+03  0.00000000000E+00 0. -1.
         24    1    1    2    0    0  0.17327093037E+01 -0.42541504704E+02  0.85702987939E+02  0.12500000000E+03  0.80419002446E+02 0.  1.
        -24    1    1    2    0    0 -0.17327093037E+01  0.42541504704E+02 -0.85702987939E+02  0.12500000000E+03  0.80419002446E+02 0. -1.
</event>
<event>
 4    1  0.1599584E-001  0.1250000E+03  0.7546771E-02  0.1126479E+00
        -11   -1    0    0    0    0  0.00000000000E+00  0.00000000000E+00  0.12500000000E+03  0.12500000000E+03  0.00000000000E+00 0.  1.
         11   -1    0    0    0    0 -0.00000000000E+00 -0.00000000000E+00 -0.12500000000E+03  0.12500000000E+03  0.00000000000E+00 0. -1.
         24    1    1    2    0    0  0.29712774354E+02 -0.70217275520E+02  0.57831386844E+02  0.12500000000E+03  0.80419002446E+02 0.  1.
        -24    1    1    2    0    0 -0.29712774354E+02  0.70217275520E+02 -0.57831386844E+02  0.12500000000E+03  0.80419002446E+02 0. -1.
</event>
<event>
 4    1  0.1599584E-001  0.1250000E+03  0.7546771E-02  0.1126479E+00
        -11   -1    0    0    0    0  0.00000000000E+00  0.00000000000E+00  0.12500000000E+03  0.12500000000E+03  0.00000000000E+00 0.  1.
         11   -1    0    0    0    0 -0.00000000000E+00 -0.00000000000E+00 -0.12500000000E+03  0.12500000000E+03  0.00000000000E+00 0. -1.
         24    1    1    2    0    0 -0.63770739267E+01 -0.15549434118E+02  0.94208980848E+02  0.12500000000E+03  0.80419002446E+02 0.  1.
        -24    1    1    2    0    0  0.63770739267E+01  0.15549434118E+02 -0.94208980848E+02  0.12500000000E+03  0.80419002446E+02 0. -1.
</event>
<event>
 4    1  0.1599584E-001  0.1250000E+03  0.7546771E-02  0.1126479E+00
        -11   -1    0    0    0    0  0.00000000000E+00  0.00000000000E+00  0.12500000000E+03  0.12500000000E+03  0.00000000000E+00 0.  1.
         11   -1    0    0    0    0 -0.00000000000E+00 -0.00000000000E+00 -0.12500000000E+03  0.12500000000E+03  0.00000000000E+00 0. -1.
         24    1    1    2    0    0 -0.64584542350E+02  0.67487671183E+02  0.20785455813E+02  0.12500000000E+03  0.80419002446E+02 0. -1.
        -24    1    1    2    0    0  0.64584542350E+02 -0.67487671183E+02 -0.20785455813E+02  0.12500000000E+03  0.80419002446E+02 0.  1.
</event>
<event>
 4    1  0.1599584E-001  0.1250000E+03  0.7546771E-02  0.1126479E+00
        -11   -1    0    0    0    0  0.00000000000E+00  0.00000000000E+00  0.12500000000E+03  0.12500000000E+03  0.00000000000E+00 0.  1.
         11   -1    0    0    0    0 -0.00000000000E+00 -0.00000000000E+00 -0.12500000000E+03  0.12500000000E+03  0.00000000000E+00 0. -1.
         24    1    1    2    0    0 -0.59466585676E+02  0.10037464333E+01  0.74970005514E+02  0.12500000000E+03  0.80419002446E+02 0.  1.
        -24    1    1    2    0    0  0.59466585676E+02 -0.10037464333E+01 -0.74970005514E+02  0.12500000000E+03  0.80419002446E+02 0. -1.
</event>
<event>
 4    1  0.1599584E-001  0.1250000E+03  0.7546771E-02  0.1126479E+00
        -11   -1    0    0    0    0  0.00000000000E+00  0.00000000000E+00  0.12500000000E+03  0.12500000000E+03  0.00000000000E+00 0.  1.
         11   -1    0    0    0    0 -0.00000000000E+00 -0.00000000000E+00 -0.12500000000E+03  0.12500000000E+03  0.00000000000E+00 0. -1.
         24    1    1    2    0    0 -0.18486498387E+02 -0.46133040339E+02  0.81778823739E+02  0.12500000000E+03  0.80419002446E+02 0.  1.
        -24    1    1    2    0    0  0.18486498387E+02  0.46133040339E+02 -0.81778823739E+02  0.12500000000E+03  0.80419002446E+02 0. -1.
</event>
<event>
 4    1  0.1599584E-001  0.1250000E+03  0.7546771E-02  0.1126479E+00
        -11   -1    0    0    0    0  0.00000000000E+00  0.00000000000E+00  0.12500000000E+03  0.12500000000E+03  0.00000000000E+00 0.  1.
         11   -1    0    0    0    0 -0.00000000000E+00 -0.00000000000E+00 -0.12500000000E+03  0.12500000000E+03  0.00000000000E+00 0. -1.
         24    1    1    2    0    0  0.46816035845E+02 -0.20203519812E+01  0.83438366542E+02  0.12500000000E+03  0.80419002446E+02 0.  1.
        -24    1    1    2    0    0 -0.46816035845E+02  0.20203519812E+01 -0.83438366542E+02  0.12500000000E+03  0.80419002446E+02 0. -1.
</event>
<event>
 4    1  0.1599584E-001  0.1250000E+03  0.7546771E-02  0.1126479E+00
        -11   -1    0    0    0    0  0.00000000000E+00  0.00000000000E+00  0.12500000000E+03  0.12500000000E+03  0.00000000000E+00 0.  1.
         11   -1    0    0    0    0 -0.00000000000E+00 -0.00000000000E+00 -0.12500000000E+03  0.12500000000E+03  0.00000000000E+00 0. -1.
         24    1    1    2    0    0 -0.36815582867E+02  0.86011230977E+02 -0.20111316459E+02  0.12500000000E+03  0.80419002446E+02 0.  0.
        -24    1    1    2    0    0  0.36815582867E+02 -0.86011230977E+02  0.20111316459E+02  0.12500000000E+03  0.80419002446E+02 0.  0.
</event>
<event>
 4    1  0.1599584E-001  0.1250000E+03  0.7546771E-02  0.1126479E+00
        -11   -1    0    0    0    0  0.00000000000E+00  0.00000000000E+00  0.12500000000E+03  0.12500000000E+03  0.00000000000E+00 0.  1.
         11   -1    0    0    0    0 -0.00000000000E+00 -0.00000000000E+00 -0.12500000000E+03  0.12500000000E+03  0.00000000000E+00 0. -1.
         24    1    1    2    0    0  0.83373804198E+02  0.50697028479E+01  0.46700009980E+02  0.12500000000E+03  0.80419002446E+02 0.  1.
        -24    1    1    2    0    0 -0.83373804198E+02 -0.50697028479E+01 -0.46700009980E+02  0.12500000000E+03  0.80419002446E+02 0. -1.
</event>
<event>
 4    1  0.1599584E-001  0.1250000E+03  0.7546771E-02  0.1126479E+00
        -11   -1    0    0    0    0  0.00000000000E+00  0.00000000000E+00  0.12500000000E+03  0.12500000000E+03  0.00000000000E+00 0.  1.
         11   -1    0    0    0    0 -0.00000000000E+00 -0.00000000000E+00 -0.12500000000E+03  0.12500000000E+03  0.00000000000E+00 0. -1.
         24    1    1    2    0    0 -0.26264554334E+02 -0.43568233507E+02  0.81054094655E+02  0.12500000000E+03  0.80419002446E+02 0.  1.
        -24    1    1    2    0    0  0.26264554334E+02  0.43568233507E+02 -0.81054094655E+02  0.12500000000E+03  0.80419002446E+02 0. -1.
</event>
<event>
 4    1  0.1599584E-001  0.1250000E+03  0.7546771E-02  0.1126479E+00
        -11   -1    0    0    0    0  0.00000000000E+00  0.00000000000E+00  0.12500000000E+03  0.12500000000E+03  0.00000000000E+00 0.  1.
         11   -1    0    0    0    0 -0.00000000000E+00 -0.00000000000E+00 -0.12500000000E+03  0.12500000000E+03  0.00000000000E+00 0. -1.
         24    1    1    2    0    0 -0.65889074443E+02 -0.20117679565E+02  0.66420575754E+02  0.12500000000E+03  0.80419002446E+02 0.  1.
        -24    1    1    2    0    0  0.65889074443E+02  0.20117679565E+02 -0.66420575754E+02  0.12500000000E+03  0.80419002446E+02 0. -1.
</event>
<event>
 4    1  0.1599584E-001  0.1250000E+03  0.7546771E-02  0.1126479E+00
        -11   -1    0    0    0    0  0.00000000000E+00  0.00000000000E+00  0.12500000000E+03  0.12500000000E+03  0.00000000000E+00 0.  1.
         11   -1    0    0    0    0 -0.00000000000E+00 -0.00000000000E+00 -0.12500000000E+03  0.12500000000E+03  0.00000000000E+00 0. -1.
         24    1    1    2    0    0  0.19581390551E+02 -0.26413249660E+02  0.89870425793E+02  0.12500000000E+03  0.80419002446E+02 0.  1.
        -24    1    1    2    0    0 -0.19581390551E+02  0.26413249660E+02 -0.89870425793E+02  0.12500000000E+03  0.80419002446E+02 0. -1.
</event>
<event>
 4    1  0.1599584E-001  0.1250000E+03  0.7546771E-02  0.1126479E+00
        -11   -1    0    0    0    0  0.00000000000E+00  0.00000000000E+00  0.12500000000E+03  0.12500000000E+03  0.00000000000E+00 0.  1.
         11   -1    0    0    0    0 -0.00000000000E+00 -0.00000000000E+00 -0.12500000000E+03  0.12500000000E+03  0.00000000000E+00 0. -1.
         24    1    1    2    0    0  0.13518791829E+02  0.43718760038E-01  0.94736605395E+02  0.12500000000E+03  0.80419002446E+02 0.  0.
        -24    1    1    2    0    0 -0.13518791829E+02 -0.43718760038E-01 -0.94736605395E+02  0.12500000000E+03  0.80419002446E+02 0. -1.
</event>
<event>
 4    1  0.1599584E-001  0.1250000E+03  0.7546771E-02  0.1126479E+00
        -11   -1    0    0    0    0  0.00000000000E+00  0.00000000000E+00  0.12500000000E+03  0.12500000000E+03  0.00000000000E+00 0.  1.
         11   -1    0    0    0    0 -0.00000000000E+00 -0.00000000000E+00 -0.12500000000E+03  0.12500000000E+03  0.00000000000E+00 0. -1.
         24    1    1    2    0    0 -0.72413619323E+01 -0.25928849353E+02  0.91831593116E+02  0.12500000000E+03  0.80419002446E+02 0.  1.
        -24    1    1    2    0    0  0.72413619323E+01  0.25928849353E+02 -0.91831593116E+02  0.12500000000E+03  0.80419002446E+02 0. -1.
</event>
<event>
 4    1  0.1599584E-001  0.1250000E+03  0.7546771E-02  0.1126479E+00
        -11   -1    0    0    0    0  0.00000000000E+00  0.00000000000E+00  0.12500000000E+03  0.12500000000E+03  0.00000000000E+00 0.  1.
         11   -1    0    0    0    0 -0.00000000000E+00 -0.00000000000E+00 -0.12500000000E+03  0.12500000000E+03  0.00000000000E+00 0. -1.
         24    1    1    2    0    0 -0.10874230326E+02  0.44562152435E+02  0.83986604472E+02  0.12500000000E+03  0.80419002446E+02 0.  1.
        -24    1    1    2    0    0  0.10874230326E+02 -0.44562152435E+02 -0.83986604472E+02  0.12500000000E+03  0.80419002446E+02 0. -1.
</event>
<event>
 4    1  0.1599584E-001  0.1250000E+03  0.7546771E-02  0.1126479E+00
        -11   -1    0    0    0    0  0.00000000000E+00  0.00000000000E+00  0.12500000000E+03  0.12500000000E+03  0.00000000000E+00 0.  1.
         11   -1    0    0    0    0 -0.00000000000E+00 -0.00000000000E+00 -0.12500000000E+03  0.12500000000E+03  0.00000000000E+00 0. -1.
         24    1    1    2    0    0  0.91589377816E+02  0.12912856283E+02  0.24544409945E+02  0.12500000000E+03  0.80419002446E+02 0. -1.
        -24    1    1    2    0    0 -0.91589377816E+02 -0.12912856283E+02 -0.24544409945E+02  0.12500000000E+03  0.80419002446E+02 0.  0.
</event>
<event>
 4    1  0.1599584E-001  0.1250000E+03  0.7546771E-02  0.1126479E+00
        -11   -1    0    0    0    0  0.00000000000E+00  0.00000000000E+00  0.12500000000E+03  0.12500000000E+03  0.00000000000E+00 0.  1.
         11   -1    0    0    0    0 -0.00000000000E+00 -0.00000000000E+00 -0.12500000000E+03  0.12500000000E+03  0.00000000000E+00 0. -1.
         24    1    1    2    0    0  0.14006547571E+02 -0.73167503033E+02  0.60067605003E+02  0.12500000000E+03  0.80419002446E+02 0.  0.
        -24    1    1    2    0    0 -0.14006547571E+02  0.73167503033E+02 -0.60067605003E+02  0.12500000000E+03  0.80419002446E+02 0. -1.
</event>
<event>
 4    1  0.1599584E-001  0.1250000E+03  0.7546771E-02  0.1126479E+00
        -11   -1    0    0    0    0  0.00000000000E+00  0.00000000000E+00  0.12500000000E+03  0.12500000000E+03  0.00000000000E+00 0.  1.
         11   -1    0    0    0    0 -0.00000000000E+00 -0.00000000000E+00 -0.12500000000E+03  0.12500000000E+03  0.00000000000E+00 0. -1.
         24    1    1    2    0    0  0.26333643381E+02  0.43942793697E+02  0.80829166481E+02  0.12500000000E+03  0.80419002446E+02 0.  0.
        -24    1    1    2    0    0 -0.26333643381E+02 -0.43942793697E+02 -0.80829166481E+02  0.12500000000E+03  0.80419002446E+02 0.  1.
</event>
<event>
 4    1  0.1599584E-001  0.1250000E+03  0.7546771E-02  0.1126479E+00
        -11   -1    0    0    0    0  0.00000000000E+00  0.00000000000E+00  0.12500000000E+03  0.12500000000E+03  0.00000000000E+00 0.  1.
         11   -1    0    0    0    0 -0.00000000000E+00 -0.00000000000E+00 -0.12500000000E+03  0.12500000000E+03  0.00000000000E+00 0. -1.
         24    1    1    2    0    0  0.34470334882E+01 -0.23425519209E+02  0.92720801633E+02  0.12500000000E+03  0.80419002446E+02 0.  1.
        -24    1    1    2    0    0 -0.34470334882E+01  0.23425519209E+02 -0.92720801633E+02  0.12500000000E+03  0.80419002446E+02 0. -1.
</event>
<event>
 4    1  0.1599584E-001  0.1250000E+03  0.7546771E-02  0.1126479E+00
        -11   -1    0    0    0    0  0.00000000000E+00  0.00000000000E+00  0.12500000000E+03  0.12500000000E+03  0.00000000000E+00 0.  1.
         11   -1    0    0    0    0 -0.00000000000E+00 -0.00000000000E+00 -0.12500000000E+03  0.12500000000E+03  0.00000000000E+00 0. -1.
         24    1    1    2    0    0 -0.79853596285E+02  0.48172713837E+02  0.21461054206E+02  0.12500000000E+03  0.80419002446E+02 0.  1.
        -24    1    1    2    0    0  0.79853596285E+02 -0.48172713837E+02 -0.21461054206E+02  0.12500000000E+03  0.80419002446E+02 0.  0.
</event>
<event>
 4    1  0.1599584E-001  0.1250000E+03  0.7546771E-02  0.1126479E+00
        -11   -1    0    0    0    0  0.00000000000E+00  0.00000000000E+00  0.12500000000E+03  0.12500000000E+03  0.00000000000E+00 0.  1.
         11   -1    0    0    0    0 -0.00000000000E+00 -0.00000000000E+00 -0.12500000000E+03  0.12500000000E+03  0.00000000000E+00 0. -1.
         24    1    1    2    0    0 -0.19323644797E+01 -0.77300091317E+01  0.95364023468E+02  0.12500000000E+03  0.80419002446E+02 0.  1.
        -24    1    1    2    0    0  0.19323644797E+01  0.77300091317E+01 -0.95364023468E+02  0.12500000000E+03  0.80419002446E+02 0.  0.
</event>
<event>
 4    1  0.1599584E-001  0.1250000E+03  0.7546771E-02  0.1126479E+00
        -11   -1    0    0    0    0  0.00000000000E+00  0.00000000000E+00  0.12500000000E+03  0.12500000000E+03  0.00000000000E+00 0.  1.
         11   -1    0    0    0    0 -0.00000000000E+00 -0.00000000000E+00 -0.12500000000E+03  0.12500000000E+03  0.00000000000E+00 0. -1.
         24    1    1    2    0    0 -0.30646952565E+01  0.22828326377E+02  0.92883040451E+02  0.12500000000E+03  0.80419002446E+02 0.  1.
        -24    1    1    2    0    0  0.30646952565E+01 -0.22828326377E+02 -0.92883040451E+02  0.12500000000E+03  0.80419002446E+02 0. -1.
</event>
<event>
 4    1  0.1599584E-001  0.1250000E+03  0.7546771E-02  0.1126479E+00
        -11   -1    0    0    0    0  0.00000000000E+00  0.00000000000E+00  0.12500000000E+03  0.12500000000E+03  0.00000000000E+00 0.  1.
         11   -1    0    0    0    0 -0.00000000000E+00 -0.00000000000E+00 -0.12500000000E+03  0.12500000000E+03  0.00000000000E+00 0. -1.
         24    1    1    2    0    0 -0.16847957121E+02  0.91660889940E+02  0.21730431238E+02  0.12500000000E+03  0.80419002446E+02 0.  1.
        -24    1    1    2    0    0  0.16847957121E+02 -0.91660889940E+02 -0.21730431238E+02  0.12500000000E+03  0.80419002446E+02 0. -1.
</event>
<event>
 4    1  0.1599584E-001  0.1250000E+03  0.7546771E-02  0.1126479E+00
        -11   -1    0    0    0    0  0.00000000000E+00  0.00000000000E+00  0.12500000000E+03  0.12500000000E+03  0.00000000000E+00 0.  1.
         11   -1    0    0    0    0 -0.00000000000E+00 -0.00000000000E+00 -0.12500000000E+03  0.12500000000E+03  0.00000000000E+00 0. -1.
         24    1    1    2    0    0 -0.85231591789E+01 -0.16100146388E+02  0.93946394766E+02  0.12500000000E+03  0.80419002446E+02 0.  0.
        -24    1    1    2    0    0  0.85231591789E+01  0.16100146388E+02 -0.93946394766E+02  0.12500000000E+03  0.80419002446E+02 0. -1.
</event>
<event>
 4    1  0.1599584E-001  0.1250000E+03  0.7546771E-02  0.1126479E+00
        -11   -1    0    0    0    0  0.00000000000E+00  0.00000000000E+00  0.12500000000E+03  0.12500000000E+03  0.00000000000E+00 0.  1.
         11   -1    0    0    0    0 -0.00000000000E+00 -0.00000000000E+00 -0.12500000000E+03  0.12500000000E+03  0.00000000000E+00 0. -1.
         24    1    1    2    0    0 -0.79426650614E+02  0.48377140615E+02 -0.22557559350E+02  0.12500000000E+03  0.80419002446E+02 0.  0.
        -24    1    1    2    0    0  0.79426650614E+02 -0.48377140615E+02  0.22557559350E+02  0.12500000000E+03  0.80419002446E+02 0. -1.
</event>
<event>
 4    1  0.1599584E-001  0.1250000E+03  0.7546771E-02  0.1126479E+00
        -11   -1    0    0    0    0  0.00000000000E+00  0.00000000000E+00  0.12500000000E+03  0.12500000000E+03  0.00000000000E+00 0.  1.
         11   -1    0    0    0    0 -0.00000000000E+00 -0.00000000000E+00 -0.12500000000E+03  0.12500000000E+03  0.00000000000E+00 0. -1.
         24    1    1    2    0    0  0.15377180877E+02 -0.28821182803E+02  0.89948128250E+02  0.12500000000E+03  0.80419002446E+02 0.  1.
        -24    1    1    2    0    0 -0.15377180877E+02  0.28821182803E+02 -0.89948128250E+02  0.12500000000E+03  0.80419002446E+02 0. -1.
</event>
<event>
 4    1  0.1599584E-001  0.1250000E+03  0.7546771E-02  0.1126479E+00
        -11   -1    0    0    0    0  0.00000000000E+00  0.00000000000E+00  0.12500000000E+03  0.12500000000E+03  0.00000000000E+00 0.  1.
         11   -1    0    0    0    0 -0.00000000000E+00 -0.00000000000E+00 -0.12500000000E+03  0.12500000000E+03  0.00000000000E+00 0. -1.
         24    1    1    2    0    0  0.67509888773E+02  0.36381372858E+01  0.67727121012E+02  0.12500000000E+03  0.80419002446E+02 0.  1.
        -24    1    1    2    0    0 -0.67509888773E+02 -0.36381372858E+01 -0.67727121012E+02  0.12500000000E+03  0.80419002446E+02 0. -1.
</event>
<event>
 4    1  0.1599584E-001  0.1250000E+03  0.7546771E-02  0.1126479E+00
        -11   -1    0    0    0    0  0.00000000000E+00  0.00000000000E+00  0.12500000000E+03  0.12500000000E+03  0.00000000000E+00 0.  1.
         11   -1    0    0    0    0 -0.00000000000E+00 -0.00000000000E+00 -0.12500000000E+03  0.12500000000E+03  0.00000000000E+00 0. -1.
         24    1    1    2    0    0  0.24571812034E+02  0.14118554762E+01  0.92477114807E+02  0.12500000000E+03  0.80419002446E+02 0.  1.
        -24    1    1    2    0    0 -0.24571812034E+02 -0.14118554762E+01 -0.92477114807E+02  0.12500000000E+03  0.80419002446E+02 0. -1.
</event>
<event>
 4    1  0.1599584E-001  0.1250000E+03  0.7546771E-02  0.1126479E+00
        -11   -1    0    0    0    0  0.00000000000E+00  0.00000000000E+00  0.12500000000E+03  0.12500000000E+03  0.00000000000E+00 0.  1.
         11   -1    0    0    0    0 -0.00000000000E+00 -0.00000000000E+00 -0.12500000000E+03  0.12500000000E+03  0.00000000000E+00 0. -1.
         24    1    1    2    0    0  0.37819256335E+02 -0.30000737198E+02  0.82628346610E+02  0.12500000000E+03  0.80419002446E+02 0.  1.
        -24    1    1    2    0    0 -0.37819256335E+02  0.30000737198E+02 -0.82628346610E+02  0.12500000000E+03  0.80419002446E+02 0. -1.
</event>
<event>
 4    1  0.1599584E-001  0.1250000E+03  0.7546771E-02  0.1126479E+00
        -11   -1    0    0    0    0  0.00000000000E+00  0.00000000000E+00  0.12500000000E+03  0.12500000000E+03  0.00000000000E+00 0.  1.
         11   -1    0    0    0    0 -0.00000000000E+00 -0.00000000000E+00 -0.12500000000E+03  0.12500000000E+03  0.00000000000E+00 0. -1.
         24    1    1    2    0    0 -0.33518766847E+02 -0.58386674320E+02  0.68009356536E+02  0.12500000000E+03  0.80419002446E+02 0. -1.
        -24    1    1    2    0    0  0.33518766847E+02  0.58386674320E+02 -0.68009356536E+02  0.12500000000E+03  0.80419002446E+02 0.  0.
</event>
<event>
 4    1  0.1599584E-001  0.1250000E+03  0.7546771E-02  0.1126479E+00
        -11   -1    0    0    0    0  0.00000000000E+00  0.00000000000E+00  0.12500000000E+03  0.12500000000E+03  0.00000000000E+00 0.  1.
         11   -1    0    0    0    0 -0.00000000000E+00 -0.00000000000E+00 -0.12500000000E+03  0.12500000000E+03  0.00000000000E+00 0. -1.
         24    1    1    2    0    0  0.49931944467E+02  0.77403403513E+01  0.81269133738E+02  0.12500000000E+03  0.80419002446E+02 0.  1.
        -24    1    1    2    0    0 -0.49931944467E+02 -0.77403403513E+01 -0.81269133738E+02  0.12500000000E+03  0.80419002446E+02 0. -1.
</event>
<event>
 4    1  0.1599584E-001  0.1250000E+03  0.7546771E-02  0.1126479E+00
        -11   -1    0    0    0    0  0.00000000000E+00  0.00000000000E+00  0.12500000000E+03  0.12500000000E+03  0.00000000000E+00 0.  1.
         11   -1    0    0    0    0 -0.00000000000E+00 -0.00000000000E+00 -0.12500000000E+03  0.12500000000E+03  0.00000000000E+00 0. -1.
         24    1    1    2    0    0 -0.35938444443E+02 -0.70930927655E+02  0.53244866030E+02  0.12500000000E+03  0.80419002446E+02 0.  1.
        -24    1    1    2    0    0  0.35938444443E+02  0.70930927655E+02 -0.53244866030E+02  0.12500000000E+03  0.80419002446E+02 0. -1.
</event>
<event>
 4    1  0.1599584E-001  0.1250000E+03  0.7546771E-02  0.1126479E+00
        -11   -1    0    0    0    0  0.00000000000E+00  0.00000000000E+00  0.12500000000E+03  0.12500000000E+03  0.00000000000E+00 0.  1.
         11   -1    0    0    0    0 -0.00000000000E+00 -0.00000000000E+00 -0.12500000000E+03  0.12500000000E+03  0.00000000000E+00 0. -1.
         24    1    1    2    0    0  0.83627998822E+02 -0.46363630354E+02 -0.38151853211E+01  0.12500000000E+03  0.80419002446E+02 0.  1.
        -24    1    1    2    0    0 -0.83627998822E+02  0.46363630354E+02  0.38151853211E+01  0.12500000000E+03  0.80419002446E+02 0. -1.
</event>
<event>
 4    1  0.1599584E-001  0.1250000E+03  0.7546771E-02  0.1126479E+00
        -11   -1    0    0    0    0  0.00000000000E+00  0.00000000000E+00  0.12500000000E+03  0.12500000000E+03  0.00000000000E+00 0.  1.
         11   -1    0    0    0    0 -0.00000000000E+00 -0.00000000000E+00 -0.12500000000E+03  0.12500000000E+03  0.00000000000E+00 0. -1.
         24    1    1    2    0    0  0.30129305165E+02  0.16289475425E+02  0.89356935972E+02  0.12500000000E+03  0.80419002446E+02 0.  1.
        -24    1    1    2    0    0 -0.30129305165E+02 -0.16289475425E+02 -0.89356935972E+02  0.12500000000E+03  0.80419002446E+02 0. -1.
</event>
<event>
 4    1  0.1599584E-001  0.1250000E+03  0.7546771E-02  0.1126479E+00
        -11   -1    0    0    0    0  0.00000000000E+00  0.00000000000E+00  0.12500000000E+03  0.12500000000E+03  0.00000000000E+00 0.  1.
         11   -1    0    0    0    0 -0.00000000000E+00 -0.00000000000E+00 -0.12500000000E+03  0.12500000000E+03  0.00000000000E+00 0. -1.
         24    1    1    2    0    0  0.55849049135E+02  0.23016959656E+02  0.74221879015E+02  0.12500000000E+03  0.80419002446E+02 0.  1.
        -24    1    1    2    0    0 -0.55849049135E+02 -0.23016959656E+02 -0.74221879015E+02  0.12500000000E+03  0.80419002446E+02 0. -1.
</event>
<event>
 4    1  0.1599584E-001  0.1250000E+03  0.7546771E-02  0.1126479E+00
        -11   -1    0    0    0    0  0.00000000000E+00  0.00000000000E+00  0.12500000000E+03  0.12500000000E+03  0.00000000000E+00 0.  1.
         11   -1    0    0    0    0 -0.00000000000E+00 -0.00000000000E+00 -0.12500000000E+03  0.12500000000E+03  0.00000000000E+00 0. -1.
         24    1    1    2    0    0  0.60633218032E+02 -0.13070497919E+02  0.72873582325E+02  0.12500000000E+03  0.80419002446E+02 0.  0.
        -24    1    1    2    0    0 -0.60633218032E+02  0.13070497919E+02 -0.72873582325E+02  0.12500000000E+03  0.80419002446E+02 0. -1.
</event>
<event>
 4    1  0.1599584E-001  0.1250000E+03  0.7546771E-02  0.1126479E+00
        -11   -1    0    0    0    0  0.00000000000E+00  0.00000000000E+00  0.12500000000E+03  0.12500000000E+03  0.00000000000E+00 0.  1.
         11   -1    0    0    0    0 -0.00000000000E+00 -0.00000000000E+00 -0.12500000000E+03  0.12500000000E+03  0.00000000000E+00 0. -1.
         24    1    1    2    0    0  0.31264365439E+02 -0.51082705392E+02  0.74638332706E+02  0.12500000000E+03  0.80419002446E+02 0.  1.
        -24    1    1    2    0    0 -0.31264365439E+02  0.51082705392E+02 -0.74638332706E+02  0.12500000000E+03  0.80419002446E+02 0. -1.
</event>
<event>
 4    1  0.1599584E-001  0.1250000E+03  0.7546771E-02  0.1126479E+00
        -11   -1    0    0    0    0  0.00000000000E+00  0.00000000000E+00  0.12500000000E+03  0.12500000000E+03  0.00000000000E+00 0.  1.
         11   -1    0    0    0    0 -0.00000000000E+00 -0.00000000000E+00 -0.12500000000E+03  0.12500000000E+03  0.00000000000E+00 0. -1.
         24    1    1    2    0    0  0.15646449575E+02 -0.70265925891E+02  0.63052932683E+02  0.12500000000E+03  0.80419002446E+02 0.  1.
        -24    1    1    2    0    0 -0.15646449575E+02  0.70265925891E+02 -0.63052932683E+02  0.12500000000E+03  0.80419002446E+02 0. -1.
</event>
<event>
 4    1  0.1599584E-001  0.1250000E+03  0.7546771E-02  0.1126479E+00
        -11   -1    0    0    0    0  0.00000000000E+00  0.00000000000E+00  0.12500000000E+03  0.12500000000E+03  0.00000000000E+00 0.  1.
         11   -1    0    0    0    0 -0.00000000000E+00 -0.00000000000E+00 -0.12500000000E+03  0.12500000000E+03  0.00000000000E+00 0. -1.
         24    1    1    2    0    0 -0.27019044241E+02  0.34387132247E+02  0.85119213047E+02  0.12500000000E+03  0.80419002446E+02 0.  1.
        -24    1    1    2    0    0  0.27019044241E+02 -0.34387132247E+02 -0.85119213047E+02  0.12500000000E+03  0.80419002446E+02 0. -1.
</event>
<event>
 4    1  0.1599584E-001  0.1250000E+03  0.7546771E-02  0.1126479E+00
        -11   -1    0    0    0    0  0.00000000000E+00  0.00000000000E+00  0.12500000000E+03  0.12500000000E+03  0.00000000000E+00 0.  1.
         11   -1    0    0    0    0 -0.00000000000E+00 -0.00000000000E+00 -0.12500000000E+03  0.12500000000E+03  0.00000000000E+00 0. -1.
         24    1    1    2    0    0 -0.11706757623E+02 -0.53947624528E+02  0.78168981568E+02  0.12500000000E+03  0.80419002446E+02 0.  1.
        -24    1    1    2    0    0  0.11706757623E+02  0.53947624528E+02 -0.78168981568E+02  0.12500000000E+03  0.80419002446E+02 0. -1.
</event>
<event>
 4    1  0.1599584E-001  0.1250000E+03  0.7546771E-02  0.1126479E+00
        -11   -1    0    0    0    0  0.00000000000E+00  0.00000000000E+00  0.12500000000E+03  0.12500000000E+03  0.00000000000E+00 0.  1.
         11   -1    0    0    0    0 -0.00000000000E+00 -0.00000000000E+00 -0.12500000000E+03  0.12500000000E+03  0.00000000000E+00 0. -1.
         24    1    1    2    0    0  0.15769770748E+02 -0.87684285522E+02  0.34936577517E+02  0.12500000000E+03  0.80419002446E+02 0.  1.
        -24    1    1    2    0    0 -0.15769770748E+02  0.87684285522E+02 -0.34936577517E+02  0.12500000000E+03  0.80419002446E+02 0. -1.
</event>
<event>
 4    1  0.1599584E-001  0.1250000E+03  0.7546771E-02  0.1126479E+00
        -11   -1    0    0    0    0  0.00000000000E+00  0.00000000000E+00  0.12500000000E+03  0.12500000000E+03  0.00000000000E+00 0.  1.
         11   -1    0    0    0    0 -0.00000000000E+00 -0.00000000000E+00 -0.12500000000E+03  0.12500000000E+03  0.00000000000E+00 0. -1.
         24    1    1    2    0    0  0.56943611584E+01  0.80961295507E+01  0.95183039366E+02  0.12500000000E+03  0.80419002446E+02 0.  1.
        -24    1    1    2    0    0 -0.56943611584E+01 -0.80961295507E+01 -0.95183039366E+02  0.12500000000E+03  0.80419002446E+02 0.  0.
</event>
<event>
 4    1  0.1599584E-001  0.1250000E+03  0.7546771E-02  0.1126479E+00
        -11   -1    0    0    0    0  0.00000000000E+00  0.00000000000E+00  0.12500000000E+03  0.12500000000E+03  0.00000000000E+00 0.  1.
         11   -1    0    0    0    0 -0.00000000000E+00 -0.00000000000E+00 -0.12500000000E+03  0.12500000000E+03  0.00000000000E+00 0. -1.
         24    1    1    2    0    0  0.55951916909E+02 -0.46773183178E+02  0.61963185644E+02  0.12500000000E+03  0.80419002446E+02 0.  0.
        -24    1    1    2    0    0 -0.55951916909E+02  0.46773183178E+02 -0.61963185644E+02  0.12500000000E+03  0.80419002446E+02 0.  1.
</event>
<event>
 4    1  0.1599584E-001  0.1250000E+03  0.7546771E-02  0.1126479E+00
        -11   -1    0    0    0    0  0.00000000000E+00  0.00000000000E+00  0.12500000000E+03  0.12500000000E+03  0.00000000000E+00 0.  1.
         11   -1    0    0    0    0 -0.00000000000E+00 -0.00000000000E+00 -0.12500000000E+03  0.12500000000E+03  0.00000000000E+00 0. -1.
         24    1    1    2    0    0  0.87403182910E+02  0.25855945055E+01 -0.38881645592E+02  0.12500000000E+03  0.80419002446E+02 0. -1.
        -24    1    1    2    0    0 -0.87403182910E+02 -0.25855945055E+01  0.38881645592E+02  0.12500000000E+03  0.80419002446E+02 0.  1.
</event>
<event>
 4    1  0.1599584E-001  0.1250000E+03  0.7546771E-02  0.1126479E+00
        -11   -1    0    0    0    0  0.00000000000E+00  0.00000000000E+00  0.12500000000E+03  0.12500000000E+03  0.00000000000E+00 0.  1.
         11   -1    0    0    0    0 -0.00000000000E+00 -0.00000000000E+00 -0.12500000000E+03  0.12500000000E+03  0.00000000000E+00 0. -1.
         24    1    1    2    0    0  0.93710593003E+02 -0.15401524179E+02  0.11785663220E+02  0.12500000000E+03  0.80419002446E+02 0.  0.
        -24    1    1    2    0    0 -0.93710593003E+02  0.15401524179E+02 -0.11785663220E+02  0.12500000000E+03  0.80419002446E+02 0.  0.
</event>
<event>
 4    1  0.1599584E-001  0.1250000E+03  0.7546771E-02  0.1126479E+00
        -11   -1    0    0    0    0  0.00000000000E+00  0.00000000000E+00  0.12500000000E+03  0.12500000000E+03  0.00000000000E+00 0.  1.
         11   -1    0    0    0    0 -0.00000000000E+00 -0.00000000000E+00 -0.12500000000E+03  0.12500000000E+03  0.00000000000E+00 0. -1.
         24    1    1    2    0    0  0.69554041826E+01 -0.17910878402E+02  0.93747569745E+02  0.12500000000E+03  0.80419002446E+02 0.  1.
        -24    1    1    2    0    0 -0.69554041826E+01  0.17910878402E+02 -0.93747569745E+02  0.12500000000E+03  0.80419002446E+02 0. -1.
</event>
<event>
 4    1  0.1599584E-001  0.1250000E+03  0.7546771E-02  0.1126479E+00
        -11   -1    0    0    0    0  0.00000000000E+00  0.00000000000E+00  0.12500000000E+03  0.12500000000E+03  0.00000000000E+00 0.  1.
         11   -1    0    0    0    0 -0.00000000000E+00 -0.00000000000E+00 -0.12500000000E+03  0.12500000000E+03  0.00000000000E+00 0. -1.
         24    1    1    2    0    0 -0.78553383946E+01 -0.27124756800E+01  0.95334779488E+02  0.12500000000E+03  0.80419002446E+02 0.  0.
        -24    1    1    2    0    0  0.78553383946E+01  0.27124756800E+01 -0.95334779488E+02  0.12500000000E+03  0.80419002446E+02 0. -1.
</event>
<event>
 4    1  0.1599584E-001  0.1250000E+03  0.7546771E-02  0.1126479E+00
        -11   -1    0    0    0    0  0.00000000000E+00  0.00000000000E+00  0.12500000000E+03  0.12500000000E+03  0.00000000000E+00 0.  1.
         11   -1    0    0    0    0 -0.00000000000E+00 -0.00000000000E+00 -0.12500000000E+03  0.12500000000E+03  0.00000000000E+00 0. -1.
         24    1    1    2    0    0  0.70671973664E+02 -0.33176246574E+02 -0.55340697930E+02  0.12500000000E+03  0.80419002446E+02 0.  0.
        -24    1    1    2    0    0 -0.70671973664E+02  0.33176246574E+02  0.55340697930E+02  0.12500000000E+03  0.80419002446E+02 0.  0.
</event>
<event>
 4    1  0.1599584E-001  0.1250000E+03  0.7546771E-02  0.1126479E+00
        -11   -1    0    0    0    0  0.00000000000E+00  0.00000000000E+00  0.12500000000E+03  0.12500000000E+03  0.00000000000E+00 0.  1.
         11   -1    0    0    0    0 -0.00000000000E+00 -0.00000000000E+00 -0.12500000000E+03  0.12500000000E+03  0.00000000000E+00 0. -1.
         24    1    1    2    0    0  0.49696863804E+02  0.68995753794E+00  0.81777317957E+02  0.12500000000E+03  0.80419002446E+02 0.  0.
        -24    1    1    2    0    0 -0.49696863804E+02 -0.68995753794E+00 -0.81777317957E+02  0.12500000000E+03  0.80419002446E+02 0.  0.
</event>
<event>
 4    1  0.1599584E-001  0.1250000E+03  0.7546771E-02  0.1126479E+00
        -11   -1    0    0    0    0  0.00000000000E+00  0.00000000000E+00  0.12500000000E+03  0.12500000000E+03  0.00000000000E+00 0.  1.
         11   -1    0    0    0    0 -0.00000000000E+00 -0.00000000000E+00 -0.12500000000E+03  0.12500000000E+03  0.00000000000E+00 0. -1.
         24    1    1    2    0    0 -0.61411275649E+02 -0.38418842901E+02  0.62533445283E+02  0.12500000000E+03  0.80419002446E+02 0.  1.
        -24    1    1    2    0    0  0.61411275649E+02  0.38418842901E+02 -0.62533445283E+02  0.12500000000E+03  0.80419002446E+02 0. -1.
</event>
<event>
 4    1  0.1599584E-001  0.1250000E+03  0.7546771E-02  0.1126479E+00
        -11   -1    0    0    0    0  0.00000000000E+00  0.00000000000E+00  0.12500000000E+03  0.12500000000E+03  0.00000000000E+00 0.  1.
         11   -1    0    0    0    0 -0.00000000000E+00 -0.00000000000E+00 -0.12500000000E+03  0.12500000000E+03  0.00000000000E+00 0. -1.
         24    1    1    2    0    0 -0.18720587573E+02  0.17275348836E+00  0.93847183244E+02  0.12500000000E+03  0.80419002446E+02 0.  1.
        -24    1    1    2    0    0  0.18720587573E+02 -0.17275348836E+00 -0.93847183244E+02  0.12500000000E+03  0.80419002446E+02 0. -1.
</event>
<event>
 4    1  0.1599584E-001  0.1250000E+03  0.7546771E-02  0.1126479E+00
        -11   -1    0    0    0    0  0.00000000000E+00  0.00000000000E+00  0.12500000000E+03  0.12500000000E+03  0.00000000000E+00 0.  1.
         11   -1    0    0    0    0 -0.00000000000E+00 -0.00000000000E+00 -0.12500000000E+03  0.12500000000E+03  0.00000000000E+00 0. -1.
         24    1    1    2    0    0 -0.11299098142E+02  0.71128421858E+02  0.63014776289E+02  0.12500000000E+03  0.80419002446E+02 0.  1.
        -24    1    1    2    0    0  0.11299098142E+02 -0.71128421858E+02 -0.63014776289E+02  0.12500000000E+03  0.80419002446E+02 0. -1.
</event>
<event>
 4    1  0.1599584E-001  0.1250000E+03  0.7546771E-02  0.1126479E+00
        -11   -1    0    0    0    0  0.00000000000E+00  0.00000000000E+00  0.12500000000E+03  0.12500000000E+03  0.00000000000E+00 0.  1.
         11   -1    0    0    0    0 -0.00000000000E+00 -0.00000000000E+00 -0.12500000000E+03  0.12500000000E+03  0.00000000000E+00 0. -1.
         24    1    1    2    0    0 -0.38500105195E+02  0.21079500118E+02  0.85036348819E+02  0.12500000000E+03  0.80419002446E+02 0.  0.
        -24    1    1    2    0    0  0.38500105195E+02 -0.21079500118E+02 -0.85036348819E+02  0.12500000000E+03  0.80419002446E+02 0.  0.
</event>
<event>
 4    1  0.1599584E-001  0.1250000E+03  0.7546771E-02  0.1126479E+00
        -11   -1    0    0    0    0  0.00000000000E+00  0.00000000000E+00  0.12500000000E+03  0.12500000000E+03  0.00000000000E+00 0.  1.
         11   -1    0    0    0    0 -0.00000000000E+00 -0.00000000000E+00 -0.12500000000E+03  0.12500000000E+03  0.00000000000E+00 0. -1.
         24    1    1    2    0    0  0.74964894771E+01 -0.41128614666E+02  0.86081494799E+02  0.12500000000E+03  0.80419002446E+02 0.  1.
        -24    1    1    2    0    0 -0.74964894771E+01  0.41128614666E+02 -0.86081494799E+02  0.12500000000E+03  0.80419002446E+02 0. -1.
</event>
<event>
 4    1  0.1599584E-001  0.1250000E+03  0.7546771E-02  0.1126479E+00
        -11   -1    0    0    0    0  0.00000000000E+00  0.00000000000E+00  0.12500000000E+03  0.12500000000E+03  0.00000000000E+00 0.  1.
         11   -1    0    0    0    0 -0.00000000000E+00 -0.00000000000E+00 -0.12500000000E+03  0.12500000000E+03  0.00000000000E+00 0. -1.
         24    1    1    2    0    0 -0.13867422668E+02 -0.93057008050E+01  0.94227822678E+02  0.12500000000E+03  0.80419002446E+02 0.  1.
        -24    1    1    2    0    0  0.13867422668E+02  0.93057008050E+01 -0.94227822678E+02  0.12500000000E+03  0.80419002446E+02 0. -1.
</event>
<event>
 4    1  0.1599584E-001  0.1250000E+03  0.7546771E-02  0.1126479E+00
        -11   -1    0    0    0    0  0.00000000000E+00  0.00000000000E+00  0.12500000000E+03  0.12500000000E+03  0.00000000000E+00 0.  1.
         11   -1    0    0    0    0 -0.00000000000E+00 -0.00000000000E+00 -0.12500000000E+03  0.12500000000E+03  0.00000000000E+00 0. -1.
         24    1    1    2    0    0  0.92313410441E+02  0.21715063466E+02  0.12824754076E+02  0.12500000000E+03  0.80419002446E+02 0.  1.
        -24    1    1    2    0    0 -0.92313410441E+02 -0.21715063466E+02 -0.12824754076E+02  0.12500000000E+03  0.80419002446E+02 0. -1.
</event>
<event>
 4    1  0.1599584E-001  0.1250000E+03  0.7546771E-02  0.1126479E+00
        -11   -1    0    0    0    0  0.00000000000E+00  0.00000000000E+00  0.12500000000E+03  0.12500000000E+03  0.00000000000E+00 0.  1.
         11   -1    0    0    0    0 -0.00000000000E+00 -0.00000000000E+00 -0.12500000000E+03  0.12500000000E+03  0.00000000000E+00 0. -1.
         24    1    1    2    0    0 -0.10840339370E+02  0.55897724565E+02  0.76913688485E+02  0.12500000000E+03  0.80419002446E+02 0.  1.
        -24    1    1    2    0    0  0.10840339370E+02 -0.55897724565E+02 -0.76913688485E+02  0.12500000000E+03  0.80419002446E+02 0. -1.
</event>
<event>
 4    1  0.1599584E-001  0.1250000E+03  0.7546771E-02  0.1126479E+00
        -11   -1    0    0    0    0  0.00000000000E+00  0.00000000000E+00  0.12500000000E+03  0.12500000000E+03  0.00000000000E+00 0.  1.
         11   -1    0    0    0    0 -0.00000000000E+00 -0.00000000000E+00 -0.12500000000E+03  0.12500000000E+03  0.00000000000E+00 0. -1.
         24    1    1    2    0    0 -0.39535759702E+01 -0.29114327784E+02  0.91074196128E+02  0.12500000000E+03  0.80419002446E+02 0.  1.
        -24    1    1    2    0    0  0.39535759702E+01  0.29114327784E+02 -0.91074196128E+02  0.12500000000E+03  0.80419002446E+02 0. -1.
</event>
<event>
 4    1  0.1599584E-001  0.1250000E+03  0.7546771E-02  0.1126479E+00
        -11   -1    0    0    0    0  0.00000000000E+00  0.00000000000E+00  0.12500000000E+03  0.12500000000E+03  0.00000000000E+00 0.  1.
         11   -1    0    0    0    0 -0.00000000000E+00 -0.00000000000E+00 -0.12500000000E+03  0.12500000000E+03  0.00000000000E+00 0. -1.
         24    1    1    2    0    0  0.13302912589E+02  0.46003356303E+02  0.82852325080E+02  0.12500000000E+03  0.80419002446E+02 0.  1.
        -24    1    1    2    0    0 -0.13302912589E+02 -0.46003356303E+02 -0.82852325080E+02  0.12500000000E+03  0.80419002446E+02 0. -1.
</event>
<event>
 4    1  0.1599584E-001  0.1250000E+03  0.7546771E-02  0.1126479E+00
        -11   -1    0    0    0    0  0.00000000000E+00  0.00000000000E+00  0.12500000000E+03  0.12500000000E+03  0.00000000000E+00 0.  1.
         11   -1    0    0    0    0 -0.00000000000E+00 -0.00000000000E+00 -0.12500000000E+03  0.12500000000E+03  0.00000000000E+00 0. -1.
         24    1    1    2    0    0  0.66409622796E+01  0.36404862816E+02  0.88251728759E+02  0.12500000000E+03  0.80419002446E+02 0. -1.
        -24    1    1    2    0    0 -0.66409622796E+01 -0.36404862816E+02 -0.88251728759E+02  0.12500000000E+03  0.80419002446E+02 0. -1.
</event>
<event>
 4    1  0.1599584E-001  0.1250000E+03  0.7546771E-02  0.1126479E+00
        -11   -1    0    0    0    0  0.00000000000E+00  0.00000000000E+00  0.12500000000E+03  0.12500000000E+03  0.00000000000E+00 0.  1.
         11   -1    0    0    0    0 -0.00000000000E+00 -0.00000000000E+00 -0.12500000000E+03  0.12500000000E+03  0.00000000000E+00 0. -1.
         24    1    1    2    0    0  0.51426602471E+02  0.39880919045E+02  0.70161249277E+02  0.12500000000E+03  0.80419002446E+02 0.  1.
        -24    1    1    2    0    0 -0.51426602471E+02 -0.39880919045E+02 -0.70161249277E+02  0.12500000000E+03  0.80419002446E+02 0. -1.
</event>
<event>
 4    1  0.1599584E-001  0.1250000E+03  0.7546771E-02  0.1126479E+00
        -11   -1    0    0    0    0  0.00000000000E+00  0.00000000000E+00  0.12500000000E+03  0.12500000000E+03  0.00000000000E+00 0.  1.
         11   -1    0    0    0    0 -0.00000000000E+00 -0.00000000000E+00 -0.12500000000E+03  0.12500000000E+03  0.00000000000E+00 0. -1.
         24    1    1    2    0    0  0.56463672352E+02  0.77239190659E+02 -0.19352458623E+01  0.12500000000E+03  0.80419002446E+02 0. -1.
        -24    1    1    2    0    0 -0.56463672352E+02 -0.77239190659E+02  0.19352458623E+01  0.12500000000E+03  0.80419002446E+02 0.  1.
</event>
<event>
 4    1  0.1599584E-001  0.1250000E+03  0.7546771E-02  0.1126479E+00
        -11   -1    0    0    0    0  0.00000000000E+00  0.00000000000E+00  0.12500000000E+03  0.12500000000E+03  0.00000000000E+00 0.  1.
         11   -1    0    0    0    0 -0.00000000000E+00 -0.00000000000E+00 -0.12500000000E+03  0.12500000000E+03  0.00000000000E+00 0. -1.
         24    1    1    2    0    0  0.75681713380E+02  0.57227323934E+02  0.12453742446E+02  0.12500000000E+03  0.80419002446E+02 0.  0.
        -24    1    1    2    0    0 -0.75681713380E+02 -0.57227323934E+02 -0.12453742446E+02  0.12500000000E+03  0.80419002446E+02 0.  0.
</event>
<event>
 4    1  0.1599584E-001  0.1250000E+03  0.7546771E-02  0.1126479E+00
        -11   -1    0    0    0    0  0.00000000000E+00  0.00000000000E+00  0.12500000000E+03  0.12500000000E+03  0.00000000000E+00 0.  1.
         11   -1    0    0    0    0 -0.00000000000E+00 -0.00000000000E+00 -0.12500000000E+03  0.12500000000E+03  0.00000000000E+00 0. -1.
         24    1    1    2    0    0 -0.25186439850E+02  0.60219478025E+01  0.92125802238E+02  0.12500000000E+03  0.80419002446E+02 0.  1.
        -24    1    1    2    0    0  0.25186439850E+02 -0.60219478025E+01 -0.92125802238E+02  0.12500000000E+03  0.80419002446E+02 0. -1.
</event>
<event>
 4    1  0.1599584E-001  0.1250000E+03  0.7546771E-02  0.1126479E+00
        -11   -1    0    0    0    0  0.00000000000E+00  0.00000000000E+00  0.12500000000E+03  0.12500000000E+03  0.00000000000E+00 0.  1.
         11   -1    0    0    0    0 -0.00000000000E+00 -0.00000000000E+00 -0.12500000000E+03  0.12500000000E+03  0.00000000000E+00 0. -1.
         24    1    1    2    0    0  0.37887508869E+02  0.49649020459E+02  0.72507209882E+02  0.12500000000E+03  0.80419002446E+02 0.  1.
        -24    1    1    2    0    0 -0.37887508869E+02 -0.49649020459E+02 -0.72507209882E+02  0.12500000000E+03  0.80419002446E+02 0. -1.
</event>
<event>
 4    1  0.1599584E-001  0.1250000E+03  0.7546771E-02  0.1126479E+00
        -11   -1    0    0    0    0  0.00000000000E+00  0.00000000000E+00  0.12500000000E+03  0.12500000000E+03  0.00000000000E+00 0.  1.
         11   -1    0    0    0    0 -0.00000000000E+00 -0.00000000000E+00 -0.12500000000E+03  0.12500000000E+03  0.00000000000E+00 0. -1.
         24    1    1    2    0    0  0.62778550273E+02  0.28153618106E+02  0.66513242732E+02  0.12500000000E+03  0.80419002446E+02 0.  1.
        -24    1    1    2    0    0 -0.62778550273E+02 -0.28153618106E+02 -0.66513242732E+02  0.12500000000E+03  0.80419002446E+02 0. -1.
</event>
<event>
 4    1  0.1599584E-001  0.1250000E+03  0.7546771E-02  0.1126479E+00
        -11   -1    0    0    0    0  0.00000000000E+00  0.00000000000E+00  0.12500000000E+03  0.12500000000E+03  0.00000000000E+00 0.  1.
         11   -1    0    0    0    0 -0.00000000000E+00 -0.00000000000E+00 -0.12500000000E+03  0.12500000000E+03  0.00000000000E+00 0. -1.
         24    1    1    2    0    0 -0.24929539013E+02  0.65967809268E+02  0.64688099916E+02  0.12500000000E+03  0.80419002446E+02 0.  1.
        -24    1    1    2    0    0  0.24929539013E+02 -0.65967809268E+02 -0.64688099916E+02  0.12500000000E+03  0.80419002446E+02 0. -1.
</event>
<event>
 4    1  0.1599584E-001  0.1250000E+03  0.7546771E-02  0.1126479E+00
        -11   -1    0    0    0    0  0.00000000000E+00  0.00000000000E+00  0.12500000000E+03  0.12500000000E+03  0.00000000000E+00 0.  1.
         11   -1    0    0    0    0 -0.00000000000E+00 -0.00000000000E+00 -0.12500000000E+03  0.12500000000E+03  0.00000000000E+00 0. -1.
         24    1    1    2    0    0 -0.69559811166E+01 -0.34252549532E+02  0.89085134691E+02  0.12500000000E+03  0.80419002446E+02 0.  1.
        -24    1    1    2    0    0  0.69559811166E+01  0.34252549532E+02 -0.89085134691E+02  0.12500000000E+03  0.80419002446E+02 0. -1.
</event>
<event>
 4    1  0.1599584E-001  0.1250000E+03  0.7546771E-02  0.1126479E+00
        -11   -1    0    0    0    0  0.00000000000E+00  0.00000000000E+00  0.12500000000E+03  0.12500000000E+03  0.00000000000E+00 0.  1.
         11   -1    0    0    0    0 -0.00000000000E+00 -0.00000000000E+00 -0.12500000000E+03  0.12500000000E+03  0.00000000000E+00 0. -1.
         24    1    1    2    0    0 -0.28807226795E+02  0.55379421974E+01  0.91089290953E+02  0.12500000000E+03  0.80419002446E+02 0.  1.
        -24    1    1    2    0    0  0.28807226795E+02 -0.55379421974E+01 -0.91089290953E+02  0.12500000000E+03  0.80419002446E+02 0. -1.
</event>
<event>
 4    1  0.1599584E-001  0.1250000E+03  0.7546771E-02  0.1126479E+00
        -11   -1    0    0    0    0  0.00000000000E+00  0.00000000000E+00  0.12500000000E+03  0.12500000000E+03  0.00000000000E+00 0.  1.
         11   -1    0    0    0    0 -0.00000000000E+00 -0.00000000000E+00 -0.12500000000E+03  0.12500000000E+03  0.00000000000E+00 0. -1.
         24    1    1    2    0    0 -0.50922323806E+02  0.41766821208E+02 -0.69427902388E+02  0.12500000000E+03  0.80419002446E+02 0.  1.
        -24    1    1    2    0    0  0.50922323806E+02 -0.41766821208E+02  0.69427902388E+02  0.12500000000E+03  0.80419002446E+02 0.  0.
</event>
<event>
 4    1  0.1599584E-001  0.1250000E+03  0.7546771E-02  0.1126479E+00
        -11   -1    0    0    0    0  0.00000000000E+00  0.00000000000E+00  0.12500000000E+03  0.12500000000E+03  0.00000000000E+00 0.  1.
         11   -1    0    0    0    0 -0.00000000000E+00 -0.00000000000E+00 -0.12500000000E+03  0.12500000000E+03  0.00000000000E+00 0. -1.
         24    1    1    2    0    0 -0.36654115436E+02 -0.37616097271E+02  0.79995556710E+02  0.12500000000E+03  0.80419002446E+02 0.  1.
        -24    1    1    2    0    0  0.36654115436E+02  0.37616097271E+02 -0.79995556710E+02  0.12500000000E+03  0.80419002446E+02 0. -1.
</event>
<event>
 4    1  0.1599584E-001  0.1250000E+03  0.7546771E-02  0.1126479E+00
        -11   -1    0    0    0    0  0.00000000000E+00  0.00000000000E+00  0.12500000000E+03  0.12500000000E+03  0.00000000000E+00 0.  1.
         11   -1    0    0    0    0 -0.00000000000E+00 -0.00000000000E+00 -0.12500000000E+03  0.12500000000E+03  0.00000000000E+00 0. -1.
         24    1    1    2    0    0  0.18287128546E+02  0.28033805357E+02  0.89651942156E+02  0.12500000000E+03  0.80419002446E+02 0.  1.
        -24    1    1    2    0    0 -0.18287128546E+02 -0.28033805357E+02 -0.89651942156E+02  0.12500000000E+03  0.80419002446E+02 0. -1.
</event>
<event>
 4    1  0.1599584E-001  0.1250000E+03  0.7546771E-02  0.1126479E+00
        -11   -1    0    0    0    0  0.00000000000E+00  0.00000000000E+00  0.12500000000E+03  0.12500000000E+03  0.00000000000E+00 0.  1.
         11   -1    0    0    0    0 -0.00000000000E+00 -0.00000000000E+00 -0.12500000000E+03  0.12500000000E+03  0.00000000000E+00 0. -1.
         24    1    1    2    0    0 -0.38969964030E+02 -0.12582610521E+02  0.86491640415E+02  0.12500000000E+03  0.80419002446E+02 0.  1.
        -24    1    1    2    0    0  0.38969964030E+02  0.12582610521E+02 -0.86491640415E+02  0.12500000000E+03  0.80419002446E+02 0. -1.
</event>
<event>
 4    1  0.1599584E-001  0.1250000E+03  0.7546771E-02  0.1126479E+00
        -11   -1    0    0    0    0  0.00000000000E+00  0.00000000000E+00  0.12500000000E+03  0.12500000000E+03  0.00000000000E+00 0.  1.
         11   -1    0    0    0    0 -0.00000000000E+00 -0.00000000000E+00 -0.12500000000E+03  0.12500000000E+03  0.00000000000E+00 0. -1.
         24    1    1    2    0    0 -0.82000131572E+01 -0.40987243943E+02  0.86084781836E+02  0.12500000000E+03  0.80419002446E+02 0.  1.
        -24    1    1    2    0    0  0.82000131572E+01  0.40987243943E+02 -0.86084781836E+02  0.12500000000E+03  0.80419002446E+02 0. -1.
</event>
<event>
 4    1  0.1599584E-001  0.1250000E+03  0.7546771E-02  0.1126479E+00
        -11   -1    0    0    0    0  0.00000000000E+00  0.00000000000E+00  0.12500000000E+03  0.12500000000E+03  0.00000000000E+00 0.  1.
         11   -1    0    0    0    0 -0.00000000000E+00 -0.00000000000E+00 -0.12500000000E+03  0.12500000000E+03  0.00000000000E+00 0. -1.
         24    1    1    2    0    0 -0.25955174568E+02 -0.21710015493E+02  0.89514178687E+02  0.12500000000E+03  0.80419002446E+02 0.  1.
        -24    1    1    2    0    0  0.25955174568E+02  0.21710015493E+02 -0.89514178687E+02  0.12500000000E+03  0.80419002446E+02 0. -1.
</event>
<event>
 4    1  0.1599584E-001  0.1250000E+03  0.7546771E-02  0.1126479E+00
        -11   -1    0    0    0    0  0.00000000000E+00  0.00000000000E+00  0.12500000000E+03  0.12500000000E+03  0.00000000000E+00 0.  1.
         11   -1    0    0    0    0 -0.00000000000E+00 -0.00000000000E+00 -0.12500000000E+03  0.12500000000E+03  0.00000000000E+00 0. -1.
         24    1    1    2    0    0 -0.46072113764E+01 -0.41078622615E+02  0.86308194356E+02  0.12500000000E+03  0.80419002446E+02 0.  1.
        -24    1    1    2    0    0  0.46072113764E+01  0.41078622615E+02 -0.86308194356E+02  0.12500000000E+03  0.80419002446E+02 0. -1.
</event>
<event>
 4    1  0.1599584E-001  0.1250000E+03  0.7546771E-02  0.1126479E+00
        -11   -1    0    0    0    0  0.00000000000E+00  0.00000000000E+00  0.12500000000E+03  0.12500000000E+03  0.00000000000E+00 0.  1.
         11   -1    0    0    0    0 -0.00000000000E+00 -0.00000000000E+00 -0.12500000000E+03  0.12500000000E+03  0.00000000000E+00 0. -1.
         24    1    1    2    0    0  0.10639742163E+02  0.33925962430E+02  0.88845984746E+02  0.12500000000E+03  0.80419002446E+02 0.  1.
        -24    1    1    2    0    0 -0.10639742163E+02 -0.33925962430E+02 -0.88845984746E+02  0.12500000000E+03  0.80419002446E+02 0. -1.
</event>
<event>
 4    1  0.1599584E-001  0.1250000E+03  0.7546771E-02  0.1126479E+00
        -11   -1    0    0    0    0  0.00000000000E+00  0.00000000000E+00  0.12500000000E+03  0.12500000000E+03  0.00000000000E+00 0.  1.
         11   -1    0    0    0    0 -0.00000000000E+00 -0.00000000000E+00 -0.12500000000E+03  0.12500000000E+03  0.00000000000E+00 0. -1.
         24    1    1    2    0    0 -0.14055090987E+02  0.58010716433E+02  0.74799700814E+02  0.12500000000E+03  0.80419002446E+02 0.  1.
        -24    1    1    2    0    0  0.14055090987E+02 -0.58010716433E+02 -0.74799700814E+02  0.12500000000E+03  0.80419002446E+02 0. -1.
</event>
<event>
 4    1  0.1599584E-001  0.1250000E+03  0.7546771E-02  0.1126479E+00
        -11   -1    0    0    0    0  0.00000000000E+00  0.00000000000E+00  0.12500000000E+03  0.12500000000E+03  0.00000000000E+00 0.  1.
         11   -1    0    0    0    0 -0.00000000000E+00 -0.00000000000E+00 -0.12500000000E+03  0.12500000000E+03  0.00000000000E+00 0. -1.
         24    1    1    2    0    0  0.54048304279E+02  0.15789786198E+02  0.77377306117E+02  0.12500000000E+03  0.80419002446E+02 0.  1.
        -24    1    1    2    0    0 -0.54048304279E+02 -0.15789786198E+02 -0.77377306117E+02  0.12500000000E+03  0.80419002446E+02 0. -1.
</event>
<event>
 4    1  0.1599584E-001  0.1250000E+03  0.7546771E-02  0.1126479E+00
        -11   -1    0    0    0    0  0.00000000000E+00  0.00000000000E+00  0.12500000000E+03  0.12500000000E+03  0.00000000000E+00 0.  1.
         11   -1    0    0    0    0 -0.00000000000E+00 -0.00000000000E+00 -0.12500000000E+03  0.12500000000E+03  0.00000000000E+00 0. -1.
         24    1    1    2    0    0 -0.39626915836E+02 -0.57209704123E+02  0.65685168350E+02  0.12500000000E+03  0.80419002446E+02 0.  1.
        -24    1    1    2    0    0  0.39626915836E+02  0.57209704123E+02 -0.65685168350E+02  0.12500000000E+03  0.80419002446E+02 0. -1.
</event>
<event>
 4    1  0.1599584E-001  0.1250000E+03  0.7546771E-02  0.1126479E+00
        -11   -1    0    0    0    0  0.00000000000E+00  0.00000000000E+00  0.12500000000E+03  0.12500000000E+03  0.00000000000E+00 0.  1.
         11   -1    0    0    0    0 -0.00000000000E+00 -0.00000000000E+00 -0.12500000000E+03  0.12500000000E+03  0.00000000000E+00 0. -1.
         24    1    1    2    0    0  0.21031192683E+02 -0.66974698073E+02  0.65037395381E+02  0.12500000000E+03  0.80419002446E+02 0. -1.
        -24    1    1    2    0    0 -0.21031192683E+02  0.66974698073E+02 -0.65037395381E+02  0.12500000000E+03  0.80419002446E+02 0.  0.
</event>
<event>
 4    1  0.1599584E-001  0.1250000E+03  0.7546771E-02  0.1126479E+00
        -11   -1    0    0    0    0  0.00000000000E+00  0.00000000000E+00  0.12500000000E+03  0.12500000000E+03  0.00000000000E+00 0.  1.
         11   -1    0    0    0    0 -0.00000000000E+00 -0.00000000000E+00 -0.12500000000E+03  0.12500000000E+03  0.00000000000E+00 0. -1.
         24    1    1    2    0    0  0.98942727253E+01 -0.38801469354E+02  0.86915668259E+02  0.12500000000E+03  0.80419002446E+02 0.  1.
        -24    1    1    2    0    0 -0.98942727253E+01  0.38801469354E+02 -0.86915668259E+02  0.12500000000E+03  0.80419002446E+02 0. -1.
</event>
<event>
 4    1  0.1599584E-001  0.1250000E+03  0.7546771E-02  0.1126479E+00
        -11   -1    0    0    0    0  0.00000000000E+00  0.00000000000E+00  0.12500000000E+03  0.12500000000E+03  0.00000000000E+00 0.  1.
         11   -1    0    0    0    0 -0.00000000000E+00 -0.00000000000E+00 -0.12500000000E+03  0.12500000000E+03  0.00000000000E+00 0. -1.
         24    1    1    2    0    0 -0.82082613750E+02  0.18417496944E+02  0.45618246041E+02  0.12500000000E+03  0.80419002446E+02 0.  1.
        -24    1    1    2    0    0  0.82082613750E+02 -0.18417496944E+02 -0.45618246041E+02  0.12500000000E+03  0.80419002446E+02 0. -1.
</event>
<event>
 4    1  0.1599584E-001  0.1250000E+03  0.7546771E-02  0.1126479E+00
        -11   -1    0    0    0    0  0.00000000000E+00  0.00000000000E+00  0.12500000000E+03  0.12500000000E+03  0.00000000000E+00 0.  1.
         11   -1    0    0    0    0 -0.00000000000E+00 -0.00000000000E+00 -0.12500000000E+03  0.12500000000E+03  0.00000000000E+00 0. -1.
         24    1    1    2    0    0 -0.20132653564E+02 -0.67443335206E+02  0.64837156341E+02  0.12500000000E+03  0.80419002446E+02 0.  1.
        -24    1    1    2    0    0  0.20132653564E+02  0.67443335206E+02 -0.64837156341E+02  0.12500000000E+03  0.80419002446E+02 0. -1.
</event>
<event>
 4    1  0.1599584E-001  0.1250000E+03  0.7546771E-02  0.1126479E+00
        -11   -1    0    0    0    0  0.00000000000E+00  0.00000000000E+00  0.12500000000E+03  0.12500000000E+03  0.00000000000E+00 0.  1.
         11   -1    0    0    0    0 -0.00000000000E+00 -0.00000000000E+00 -0.12500000000E+03  0.12500000000E+03  0.00000000000E+00 0. -1.
         24    1    1    2    0    0 -0.23009882662E+02 -0.56094573772E+02  0.74038693525E+02  0.12500000000E+03  0.80419002446E+02 0.  1.
        -24    1    1    2    0    0  0.23009882662E+02  0.56094573772E+02 -0.74038693525E+02  0.12500000000E+03  0.80419002446E+02 0. -1.
</event>
<event>
 4    1  0.1599584E-001  0.1250000E+03  0.7546771E-02  0.1126479E+00
        -11   -1    0    0    0    0  0.00000000000E+00  0.00000000000E+00  0.12500000000E+03  0.12500000000E+03  0.00000000000E+00 0.  1.
         11   -1    0    0    0    0 -0.00000000000E+00 -0.00000000000E+00 -0.12500000000E+03  0.12500000000E+03  0.00000000000E+00 0. -1.
         24    1    1    2    0    0  0.42750053121E+02  0.73237297243E+02  0.44345408965E+02  0.12500000000E+03  0.80419002446E+02 0.  0.
        -24    1    1    2    0    0 -0.42750053121E+02 -0.73237297243E+02 -0.44345408965E+02  0.12500000000E+03  0.80419002446E+02 0. -1.
</event>
<event>
 4    1  0.1599584E-001  0.1250000E+03  0.7546771E-02  0.1126479E+00
        -11   -1    0    0    0    0  0.00000000000E+00  0.00000000000E+00  0.12500000000E+03  0.12500000000E+03  0.00000000000E+00 0.  1.
         11   -1    0    0    0    0 -0.00000000000E+00 -0.00000000000E+00 -0.12500000000E+03  0.12500000000E+03  0.00000000000E+00 0. -1.
         24    1    1    2    0    0 -0.11906110223E+02 -0.10921565133E+02  0.94322574180E+02  0.12500000000E+03  0.80419002446E+02 0.  1.
        -24    1    1    2    0    0  0.11906110223E+02  0.10921565133E+02 -0.94322574180E+02  0.12500000000E+03  0.80419002446E+02 0. -1.
</event>
<event>
 4    1  0.1599584E-001  0.1250000E+03  0.7546771E-02  0.1126479E+00
        -11   -1    0    0    0    0  0.00000000000E+00  0.00000000000E+00  0.12500000000E+03  0.12500000000E+03  0.00000000000E+00 0.  1.
         11   -1    0    0    0    0 -0.00000000000E+00 -0.00000000000E+00 -0.12500000000E+03  0.12500000000E+03  0.00000000000E+00 0. -1.
         24    1    1    2    0    0 -0.94616330186E+01  0.76092164895E+02  0.57255951550E+02  0.12500000000E+03  0.80419002446E+02 0.  1.
        -24    1    1    2    0    0  0.94616330186E+01 -0.76092164895E+02 -0.57255951550E+02  0.12500000000E+03  0.80419002446E+02 0. -1.
</event>
<event>
 4    1  0.1599584E-001  0.1250000E+03  0.7546771E-02  0.1126479E+00
        -11   -1    0    0    0    0  0.00000000000E+00  0.00000000000E+00  0.12500000000E+03  0.12500000000E+03  0.00000000000E+00 0.  1.
         11   -1    0    0    0    0 -0.00000000000E+00 -0.00000000000E+00 -0.12500000000E+03  0.12500000000E+03  0.00000000000E+00 0. -1.
         24    1    1    2    0    0  0.22247159518E+02  0.44871535284E+02  0.81543811906E+02  0.12500000000E+03  0.80419002446E+02 0. -1.
        -24    1    1    2    0    0 -0.22247159518E+02 -0.44871535284E+02 -0.81543811906E+02  0.12500000000E+03  0.80419002446E+02 0.  0.
</event>
<event>
 4    1  0.1599584E-001  0.1250000E+03  0.7546771E-02  0.1126479E+00
        -11   -1    0    0    0    0  0.00000000000E+00  0.00000000000E+00  0.12500000000E+03  0.12500000000E+03  0.00000000000E+00 0.  1.
         11   -1    0    0    0    0 -0.00000000000E+00 -0.00000000000E+00 -0.12500000000E+03  0.12500000000E+03  0.00000000000E+00 0. -1.
         24    1    1    2    0    0  0.95461228924E+02  0.66904650692E+01 -0.41892143081E+00  0.12500000000E+03  0.80419002446E+02 0. -1.
        -24    1    1    2    0    0 -0.95461228924E+02 -0.66904650692E+01  0.41892143081E+00  0.12500000000E+03  0.80419002446E+02 0.  1.
</event>
<event>
 4    1  0.1599584E-001  0.1250000E+03  0.7546771E-02  0.1126479E+00
        -11   -1    0    0    0    0  0.00000000000E+00  0.00000000000E+00  0.12500000000E+03  0.12500000000E+03  0.00000000000E+00 0.  1.
         11   -1    0    0    0    0 -0.00000000000E+00 -0.00000000000E+00 -0.12500000000E+03  0.12500000000E+03  0.00000000000E+00 0. -1.
         24    1    1    2    0    0 -0.19791239591E+02 -0.21640202706E+02  0.91092219799E+02  0.12500000000E+03  0.80419002446E+02 0.  1.
        -24    1    1    2    0    0  0.19791239591E+02  0.21640202706E+02 -0.91092219799E+02  0.12500000000E+03  0.80419002446E+02 0. -1.
</event>
<event>
 4    1  0.1599584E-001  0.1250000E+03  0.7546771E-02  0.1126479E+00
        -11   -1    0    0    0    0  0.00000000000E+00  0.00000000000E+00  0.12500000000E+03  0.12500000000E+03  0.00000000000E+00 0.  1.
         11   -1    0    0    0    0 -0.00000000000E+00 -0.00000000000E+00 -0.12500000000E+03  0.12500000000E+03  0.00000000000E+00 0. -1.
         24    1    1    2    0    0  0.40719760113E+02  0.16953092387E+02  0.84925130795E+02  0.12500000000E+03  0.80419002446E+02 0.  1.
        -24    1    1    2    0    0 -0.40719760113E+02 -0.16953092387E+02 -0.84925130795E+02  0.12500000000E+03  0.80419002446E+02 0. -1.
</event>
<event>
 4    1  0.1599584E-001  0.1250000E+03  0.7546771E-02  0.1126479E+00
        -11   -1    0    0    0    0  0.00000000000E+00  0.00000000000E+00  0.12500000000E+03  0.12500000000E+03  0.00000000000E+00 0.  1.
         11   -1    0    0    0    0 -0.00000000000E+00 -0.00000000000E+00 -0.12500000000E+03  0.12500000000E+03  0.00000000000E+00 0. -1.
         24    1    1    2    0    0  0.65842292558E+02 -0.11505965465E+02  0.68484956852E+02  0.12500000000E+03  0.80419002446E+02 0.  1.
        -24    1    1    2    0    0 -0.65842292558E+02  0.11505965465E+02 -0.68484956852E+02  0.12500000000E+03  0.80419002446E+02 0. -1.
</event>
<event>
 4    1  0.1599584E-001  0.1250000E+03  0.7546771E-02  0.1126479E+00
        -11   -1    0    0    0    0  0.00000000000E+00  0.00000000000E+00  0.12500000000E+03  0.12500000000E+03  0.00000000000E+00 0.  1.
         11   -1    0    0    0    0 -0.00000000000E+00 -0.00000000000E+00 -0.12500000000E+03  0.12500000000E+03  0.00000000000E+00 0. -1.
         24    1    1    2    0    0 -0.20239584479E+02  0.29789730928E+02  0.88660674467E+02  0.12500000000E+03  0.80419002446E+02 0.  1.
        -24    1    1    2    0    0  0.20239584479E+02 -0.29789730928E+02 -0.88660674467E+02  0.12500000000E+03  0.80419002446E+02 0. -1.
</event>
<event>
 4    1  0.1599584E-001  0.1250000E+03  0.7546771E-02  0.1126479E+00
        -11   -1    0    0    0    0  0.00000000000E+00  0.00000000000E+00  0.12500000000E+03  0.12500000000E+03  0.00000000000E+00 0.  1.
         11   -1    0    0    0    0 -0.00000000000E+00 -0.00000000000E+00 -0.12500000000E+03  0.12500000000E+03  0.00000000000E+00 0. -1.
         24    1    1    2    0    0  0.34122561543E+02 -0.54381700293E+01  0.89240468097E+02  0.12500000000E+03  0.80419002446E+02 0.  1.
        -24    1    1    2    0    0 -0.34122561543E+02  0.54381700293E+01 -0.89240468097E+02  0.12500000000E+03  0.80419002446E+02 0. -1.
</event>
<event>
 4    1  0.1599584E-001  0.1250000E+03  0.7546771E-02  0.1126479E+00
        -11   -1    0    0    0    0  0.00000000000E+00  0.00000000000E+00  0.12500000000E+03  0.12500000000E+03  0.00000000000E+00 0.  1.
         11   -1    0    0    0    0 -0.00000000000E+00 -0.00000000000E+00 -0.12500000000E+03  0.12500000000E+03  0.00000000000E+00 0. -1.
         24    1    1    2    0    0  0.68762848021E+01  0.21866992805E+02  0.92910362063E+02  0.12500000000E+03  0.80419002446E+02 0.  1.
        -24    1    1    2    0    0 -0.68762848021E+01 -0.21866992805E+02 -0.92910362063E+02  0.12500000000E+03  0.80419002446E+02 0. -1.
</event>
<event>
 4    1  0.1599584E-001  0.1250000E+03  0.7546771E-02  0.1126479E+00
        -11   -1    0    0    0    0  0.00000000000E+00  0.00000000000E+00  0.12500000000E+03  0.12500000000E+03  0.00000000000E+00 0.  1.
         11   -1    0    0    0    0 -0.00000000000E+00 -0.00000000000E+00 -0.12500000000E+03  0.12500000000E+03  0.00000000000E+00 0. -1.
         24    1    1    2    0    0 -0.82907234924E+02 -0.46713772309E+02  0.10099401942E+02  0.12500000000E+03  0.80419002446E+02 0.  1.
        -24    1    1    2    0    0  0.82907234924E+02  0.46713772309E+02 -0.10099401942E+02  0.12500000000E+03  0.80419002446E+02 0. -1.
</event>
<event>
 4    1  0.1599584E-001  0.1250000E+03  0.7546771E-02  0.1126479E+00
        -11   -1    0    0    0    0  0.00000000000E+00  0.00000000000E+00  0.12500000000E+03  0.12500000000E+03  0.00000000000E+00 0.  1.
         11   -1    0    0    0    0 -0.00000000000E+00 -0.00000000000E+00 -0.12500000000E+03  0.12500000000E+03  0.00000000000E+00 0. -1.
         24    1    1    2    0    0 -0.30095353904E+02 -0.82278231641E+02  0.38501250850E+02  0.12500000000E+03  0.80419002446E+02 0.  1.
        -24    1    1    2    0    0  0.30095353904E+02  0.82278231641E+02 -0.38501250850E+02  0.12500000000E+03  0.80419002446E+02 0.  0.
</event>
<event>
 4    1  0.1599584E-001  0.1250000E+03  0.7546771E-02  0.1126479E+00
        -11   -1    0    0    0    0  0.00000000000E+00  0.00000000000E+00  0.12500000000E+03  0.12500000000E+03  0.00000000000E+00 0.  1.
         11   -1    0    0    0    0 -0.00000000000E+00 -0.00000000000E+00 -0.12500000000E+03  0.12500000000E+03  0.00000000000E+00 0. -1.
         24    1    1    2    0    0 -0.79997336920E+02 -0.46026095415E+02  0.25294439552E+02  0.12500000000E+03  0.80419002446E+02 0.  0.
        -24    1    1    2    0    0  0.79997336920E+02  0.46026095415E+02 -0.25294439552E+02  0.12500000000E+03  0.80419002446E+02 0.  0.
</event>
<event>
 4    1  0.1599584E-001  0.1250000E+03  0.7546771E-02  0.1126479E+00
        -11   -1    0    0    0    0  0.00000000000E+00  0.00000000000E+00  0.12500000000E+03  0.12500000000E+03  0.00000000000E+00 0.  1.
         11   -1    0    0    0    0 -0.00000000000E+00 -0.00000000000E+00 -0.12500000000E+03  0.12500000000E+03  0.00000000000E+00 0. -1.
         24    1    1    2    0    0 -0.25522089481E+02 -0.27421841709E+02  0.88059352663E+02  0.12500000000E+03  0.80419002446E+02 0.  1.
        -24    1    1    2    0    0  0.25522089481E+02  0.27421841709E+02 -0.88059352663E+02  0.12500000000E+03  0.80419002446E+02 0. -1.
</event>
<event>
 4    1  0.1599584E-001  0.1250000E+03  0.7546771E-02  0.1126479E+00
        -11   -1    0    0    0    0  0.00000000000E+00  0.00000000000E+00  0.12500000000E+03  0.12500000000E+03  0.00000000000E+00 0.  1.
         11   -1    0    0    0    0 -0.00000000000E+00 -0.00000000000E+00 -0.12500000000E+03  0.12500000000E+03  0.00000000000E+00 0. -1.
         24    1    1    2    0    0  0.21853549266E+01  0.36030784241E+02  0.88627257977E+02  0.12500000000E+03  0.80419002446E+02 0.  1.
        -24    1    1    2    0    0 -0.21853549266E+01 -0.36030784241E+02 -0.88627257977E+02  0.12500000000E+03  0.80419002446E+02 0. -1.
</event>
<event>
 4    1  0.1599584E-001  0.1250000E+03  0.7546771E-02  0.1126479E+00
        -11   -1    0    0    0    0  0.00000000000E+00  0.00000000000E+00  0.12500000000E+03  0.12500000000E+03  0.00000000000E+00 0.  1.
         11   -1    0    0    0    0 -0.00000000000E+00 -0.00000000000E+00 -0.12500000000E+03  0.12500000000E+03  0.00000000000E+00 0. -1.
         24    1    1    2    0    0  0.82347596018E+02 -0.46240411912E+02  0.15442855368E+02  0.12500000000E+03  0.80419002446E+02 0.  1.
        -24    1    1    2    0    0 -0.82347596018E+02  0.46240411912E+02 -0.15442855368E+02  0.12500000000E+03  0.80419002446E+02 0. -1.
</event>
<event>
 4    1  0.1599584E-001  0.1250000E+03  0.7546771E-02  0.1126479E+00
        -11   -1    0    0    0    0  0.00000000000E+00  0.00000000000E+00  0.12500000000E+03  0.12500000000E+03  0.00000000000E+00 0.  1.
         11   -1    0    0    0    0 -0.00000000000E+00 -0.00000000000E+00 -0.12500000000E+03  0.12500000000E+03  0.00000000000E+00 0. -1.
         24    1    1    2    0    0  0.18139581281E+02 -0.12401864204E+02  0.93139322527E+02  0.12500000000E+03  0.80419002446E+02 0.  1.
        -24    1    1    2    0    0 -0.18139581281E+02  0.12401864204E+02 -0.93139322527E+02  0.12500000000E+03  0.80419002446E+02 0.  0.
</event>
<event>
 4    1  0.1599584E-001  0.1250000E+03  0.7546771E-02  0.1126479E+00
        -11   -1    0    0    0    0  0.00000000000E+00  0.00000000000E+00  0.12500000000E+03  0.12500000000E+03  0.00000000000E+00 0.  1.
         11   -1    0    0    0    0 -0.00000000000E+00 -0.00000000000E+00 -0.12500000000E+03  0.12500000000E+03  0.00000000000E+00 0. -1.
         24    1    1    2    0    0 -0.42610259375E+02 -0.16902510155E+02  0.84002708242E+02  0.12500000000E+03  0.80419002446E+02 0.  1.
        -24    1    1    2    0    0  0.42610259375E+02  0.16902510155E+02 -0.84002708242E+02  0.12500000000E+03  0.80419002446E+02 0. -1.
</event>
<event>
 4    1  0.1599584E-001  0.1250000E+03  0.7546771E-02  0.1126479E+00
        -11   -1    0    0    0    0  0.00000000000E+00  0.00000000000E+00  0.12500000000E+03  0.12500000000E+03  0.00000000000E+00 0.  1.
         11   -1    0    0    0    0 -0.00000000000E+00 -0.00000000000E+00 -0.12500000000E+03  0.12500000000E+03  0.00000000000E+00 0. -1.
         24    1    1    2    0    0 -0.45848860930E+02 -0.79186087002E+01  0.83623929789E+02  0.12500000000E+03  0.80419002446E+02 0.  1.
        -24    1    1    2    0    0  0.45848860930E+02  0.79186087002E+01 -0.83623929789E+02  0.12500000000E+03  0.80419002446E+02 0. -1.
</event>
<event>
 4    1  0.1599584E-001  0.1250000E+03  0.7546771E-02  0.1126479E+00
        -11   -1    0    0    0    0  0.00000000000E+00  0.00000000000E+00  0.12500000000E+03  0.12500000000E+03  0.00000000000E+00 0.  1.
         11   -1    0    0    0    0 -0.00000000000E+00 -0.00000000000E+00 -0.12500000000E+03  0.12500000000E+03  0.00000000000E+00 0. -1.
         24    1    1    2    0    0  0.10650696316E+02 -0.28189330630E+02  0.90827905141E+02  0.12500000000E+03  0.80419002446E+02 0.  1.
        -24    1    1    2    0    0 -0.10650696316E+02  0.28189330630E+02 -0.90827905141E+02  0.12500000000E+03  0.80419002446E+02 0. -1.
</event>
<event>
 4    1  0.1599584E-001  0.1250000E+03  0.7546771E-02  0.1126479E+00
        -11   -1    0    0    0    0  0.00000000000E+00  0.00000000000E+00  0.12500000000E+03  0.12500000000E+03  0.00000000000E+00 0.  1.
         11   -1    0    0    0    0 -0.00000000000E+00 -0.00000000000E+00 -0.12500000000E+03  0.12500000000E+03  0.00000000000E+00 0. -1.
         24    1    1    2    0    0 -0.26481847441E+02  0.15688752610E+02  0.90611030473E+02  0.12500000000E+03  0.80419002446E+02 0.  1.
        -24    1    1    2    0    0  0.26481847441E+02 -0.15688752610E+02 -0.90611030473E+02  0.12500000000E+03  0.80419002446E+02 0. -1.
</event>
<event>
 4    1  0.1599584E-001  0.1250000E+03  0.7546771E-02  0.1126479E+00
        -11   -1    0    0    0    0  0.00000000000E+00  0.00000000000E+00  0.12500000000E+03  0.12500000000E+03  0.00000000000E+00 0.  1.
         11   -1    0    0    0    0 -0.00000000000E+00 -0.00000000000E+00 -0.12500000000E+03  0.12500000000E+03  0.00000000000E+00 0. -1.
         24    1    1    2    0    0  0.86012244718E+02 -0.11170007519E+02  0.40434004701E+02  0.12500000000E+03  0.80419002446E+02 0.  1.
        -24    1    1    2    0    0 -0.86012244718E+02  0.11170007519E+02 -0.40434004701E+02  0.12500000000E+03  0.80419002446E+02 0. -1.
</event>
<event>
 4    1  0.1599584E-001  0.1250000E+03  0.7546771E-02  0.1126479E+00
        -11   -1    0    0    0    0  0.00000000000E+00  0.00000000000E+00  0.12500000000E+03  0.12500000000E+03  0.00000000000E+00 0.  1.
         11   -1    0    0    0    0 -0.00000000000E+00 -0.00000000000E+00 -0.12500000000E+03  0.12500000000E+03  0.00000000000E+00 0. -1.
         24    1    1    2    0    0 -0.38045370970E+02  0.71792501655E+02  0.50558584825E+02  0.12500000000E+03  0.80419002446E+02 0.  1.
        -24    1    1    2    0    0  0.38045370970E+02 -0.71792501655E+02 -0.50558584825E+02  0.12500000000E+03  0.80419002446E+02 0. -1.
</event>
<event>
 4    1  0.1599584E-001  0.1250000E+03  0.7546771E-02  0.1126479E+00
        -11   -1    0    0    0    0  0.00000000000E+00  0.00000000000E+00  0.12500000000E+03  0.12500000000E+03  0.00000000000E+00 0.  1.
         11   -1    0    0    0    0 -0.00000000000E+00 -0.00000000000E+00 -0.12500000000E+03  0.12500000000E+03  0.00000000000E+00 0. -1.
         24    1    1    2    0    0 -0.32662878826E+02 -0.70749068532E+02  0.55547184396E+02  0.12500000000E+03  0.80419002446E+02 0.  1.
        -24    1    1    2    0    0  0.32662878826E+02  0.70749068532E+02 -0.55547184396E+02  0.12500000000E+03  0.80419002446E+02 0. -1.
</event>
<event>
 4    1  0.1599584E-001  0.1250000E+03  0.7546771E-02  0.1126479E+00
        -11   -1    0    0    0    0  0.00000000000E+00  0.00000000000E+00  0.12500000000E+03  0.12500000000E+03  0.00000000000E+00 0.  1.
         11   -1    0    0    0    0 -0.00000000000E+00 -0.00000000000E+00 -0.12500000000E+03  0.12500000000E+03  0.00000000000E+00 0. -1.
         24    1    1    2    0    0  0.27719913358E+02 -0.90966047080E+02  0.10703678229E+02  0.12500000000E+03  0.80419002446E+02 0.  0.
        -24    1    1    2    0    0 -0.27719913358E+02  0.90966047080E+02 -0.10703678229E+02  0.12500000000E+03  0.80419002446E+02 0.  0.
</event>
<event>
 4    1  0.1599584E-001  0.1250000E+03  0.7546771E-02  0.1126479E+00
        -11   -1    0    0    0    0  0.00000000000E+00  0.00000000000E+00  0.12500000000E+03  0.12500000000E+03  0.00000000000E+00 0.  1.
         11   -1    0    0    0    0 -0.00000000000E+00 -0.00000000000E+00 -0.12500000000E+03  0.12500000000E+03  0.00000000000E+00 0. -1.
         24    1    1    2    0    0  0.40571573792E+02 -0.51640484987E+01  0.86516264649E+02  0.12500000000E+03  0.80419002446E+02 0.  0.
        -24    1    1    2    0    0 -0.40571573792E+02  0.51640484987E+01 -0.86516264649E+02  0.12500000000E+03  0.80419002446E+02 0.  0.
</event>
<event>
 4    1  0.1599584E-001  0.1250000E+03  0.7546771E-02  0.1126479E+00
        -11   -1    0    0    0    0  0.00000000000E+00  0.00000000000E+00  0.12500000000E+03  0.12500000000E+03  0.00000000000E+00 0.  1.
         11   -1    0    0    0    0 -0.00000000000E+00 -0.00000000000E+00 -0.12500000000E+03  0.12500000000E+03  0.00000000000E+00 0. -1.
         24    1    1    2    0    0  0.51601763189E+02 -0.10376214012E+02  0.79921062707E+02  0.12500000000E+03  0.80419002446E+02 0.  1.
        -24    1    1    2    0    0 -0.51601763189E+02  0.10376214012E+02 -0.79921062707E+02  0.12500000000E+03  0.80419002446E+02 0. -1.
</event>
<event>
 4    1  0.1599584E-001  0.1250000E+03  0.7546771E-02  0.1126479E+00
        -11   -1    0    0    0    0  0.00000000000E+00  0.00000000000E+00  0.12500000000E+03  0.12500000000E+03  0.00000000000E+00 0.  1.
         11   -1    0    0    0    0 -0.00000000000E+00 -0.00000000000E+00 -0.12500000000E+03  0.12500000000E+03  0.00000000000E+00 0. -1.
         24    1    1    2    0    0  0.29660417842E+02 -0.17050233304E+02  0.89371881503E+02  0.12500000000E+03  0.80419002446E+02 0.  1.
        -24    1    1    2    0    0 -0.29660417842E+02  0.17050233304E+02 -0.89371881503E+02  0.12500000000E+03  0.80419002446E+02 0. -1.
</event>
<event>
 4    1  0.1599584E-001  0.1250000E+03  0.7546771E-02  0.1126479E+00
        -11   -1    0    0    0    0  0.00000000000E+00  0.00000000000E+00  0.12500000000E+03  0.12500000000E+03  0.00000000000E+00 0.  1.
         11   -1    0    0    0    0 -0.00000000000E+00 -0.00000000000E+00 -0.12500000000E+03  0.12500000000E+03  0.00000000000E+00 0. -1.
         24    1    1    2    0    0  0.55619967498E+02  0.70824411852E+02  0.32374464428E+02  0.12500000000E+03  0.80419002446E+02 0.  0.
        -24    1    1    2    0    0 -0.55619967498E+02 -0.70824411852E+02 -0.32374464428E+02  0.12500000000E+03  0.80419002446E+02 0.  1.
</event>
<event>
 4    1  0.1599584E-001  0.1250000E+03  0.7546771E-02  0.1126479E+00
        -11   -1    0    0    0    0  0.00000000000E+00  0.00000000000E+00  0.12500000000E+03  0.12500000000E+03  0.00000000000E+00 0.  1.
         11   -1    0    0    0    0 -0.00000000000E+00 -0.00000000000E+00 -0.12500000000E+03  0.12500000000E+03  0.00000000000E+00 0. -1.
         24    1    1    2    0    0  0.49949987040E+01 -0.19957132773E+02  0.93458797794E+02  0.12500000000E+03  0.80419002446E+02 0.  1.
        -24    1    1    2    0    0 -0.49949987040E+01  0.19957132773E+02 -0.93458797794E+02  0.12500000000E+03  0.80419002446E+02 0. -1.
</event>
<event>
 4    1  0.1599584E-001  0.1250000E+03  0.7546771E-02  0.1126479E+00
        -11   -1    0    0    0    0  0.00000000000E+00  0.00000000000E+00  0.12500000000E+03  0.12500000000E+03  0.00000000000E+00 0.  1.
         11   -1    0    0    0    0 -0.00000000000E+00 -0.00000000000E+00 -0.12500000000E+03  0.12500000000E+03  0.00000000000E+00 0. -1.
         24    1    1    2    0    0 -0.52563433407E+02  0.79385125195E+02  0.96369814723E+01  0.12500000000E+03  0.80419002446E+02 0.  1.
        -24    1    1    2    0    0  0.52563433407E+02 -0.79385125195E+02 -0.96369814723E+01  0.12500000000E+03  0.80419002446E+02 0. -1.
</event>
<event>
 4    1  0.1599584E-001  0.1250000E+03  0.7546771E-02  0.1126479E+00
        -11   -1    0    0    0    0  0.00000000000E+00  0.00000000000E+00  0.12500000000E+03  0.12500000000E+03  0.00000000000E+00 0.  1.
         11   -1    0    0    0    0 -0.00000000000E+00 -0.00000000000E+00 -0.12500000000E+03  0.12500000000E+03  0.00000000000E+00 0. -1.
         24    1    1    2    0    0 -0.67623966108E+02  0.44883315374E+02  0.50697842700E+02  0.12500000000E+03  0.80419002446E+02 0.  1.
        -24    1    1    2    0    0  0.67623966108E+02 -0.44883315374E+02 -0.50697842700E+02  0.12500000000E+03  0.80419002446E+02 0. -1.
</event>
<event>
 4    1  0.1599584E-001  0.1250000E+03  0.7546771E-02  0.1126479E+00
        -11   -1    0    0    0    0  0.00000000000E+00  0.00000000000E+00  0.12500000000E+03  0.12500000000E+03  0.00000000000E+00 0.  1.
         11   -1    0    0    0    0 -0.00000000000E+00 -0.00000000000E+00 -0.12500000000E+03  0.12500000000E+03  0.00000000000E+00 0. -1.
         24    1    1    2    0    0 -0.67572672819E+02 -0.51739362120E+02  0.43757928895E+02  0.12500000000E+03  0.80419002446E+02 0. -1.
        -24    1    1    2    0    0  0.67572672819E+02  0.51739362120E+02 -0.43757928895E+02  0.12500000000E+03  0.80419002446E+02 0.  0.
</event>
<event>
 4    1  0.1599584E-001  0.1250000E+03  0.7546771E-02  0.1126479E+00
        -11   -1    0    0    0    0  0.00000000000E+00  0.00000000000E+00  0.12500000000E+03  0.12500000000E+03  0.00000000000E+00 0.  1.
         11   -1    0    0    0    0 -0.00000000000E+00 -0.00000000000E+00 -0.12500000000E+03  0.12500000000E+03  0.00000000000E+00 0. -1.
         24    1    1    2    0    0  0.64467023257E+02  0.44591134198E+02  0.54894605463E+02  0.12500000000E+03  0.80419002446E+02 0.  1.
        -24    1    1    2    0    0 -0.64467023257E+02 -0.44591134198E+02 -0.54894605463E+02  0.12500000000E+03  0.80419002446E+02 0. -1.
</event>
<event>
 4    1  0.1599584E-001  0.1250000E+03  0.7546771E-02  0.1126479E+00
        -11   -1    0    0    0    0  0.00000000000E+00  0.00000000000E+00  0.12500000000E+03  0.12500000000E+03  0.00000000000E+00 0.  1.
         11   -1    0    0    0    0 -0.00000000000E+00 -0.00000000000E+00 -0.12500000000E+03  0.12500000000E+03  0.00000000000E+00 0. -1.
         24    1    1    2    0    0  0.16619046636E+02 -0.60030901132E+02  0.72649034706E+02  0.12500000000E+03  0.80419002446E+02 0.  1.
        -24    1    1    2    0    0 -0.16619046636E+02  0.60030901132E+02 -0.72649034706E+02  0.12500000000E+03  0.80419002446E+02 0. -1.
</event>
<event>
 4    1  0.1599584E-001  0.1250000E+03  0.7546771E-02  0.1126479E+00
        -11   -1    0    0    0    0  0.00000000000E+00  0.00000000000E+00  0.12500000000E+03  0.12500000000E+03  0.00000000000E+00 0.  1.
         11   -1    0    0    0    0 -0.00000000000E+00 -0.00000000000E+00 -0.12500000000E+03  0.12500000000E+03  0.00000000000E+00 0. -1.
         24    1    1    2    0    0 -0.73788775406E+02  0.51449683856E+01  0.60716801382E+02  0.12500000000E+03  0.80419002446E+02 0.  1.
        -24    1    1    2    0    0  0.73788775406E+02 -0.51449683856E+01 -0.60716801382E+02  0.12500000000E+03  0.80419002446E+02 0. -1.
</event>
<event>
 4    1  0.1599584E-001  0.1250000E+03  0.7546771E-02  0.1126479E+00
        -11   -1    0    0    0    0  0.00000000000E+00  0.00000000000E+00  0.12500000000E+03  0.12500000000E+03  0.00000000000E+00 0.  1.
         11   -1    0    0    0    0 -0.00000000000E+00 -0.00000000000E+00 -0.12500000000E+03  0.12500000000E+03  0.00000000000E+00 0. -1.
         24    1    1    2    0    0 -0.57230747639E+02  0.20118129179E+02  0.74011394046E+02  0.12500000000E+03  0.80419002446E+02 0.  1.
        -24    1    1    2    0    0  0.57230747639E+02 -0.20118129179E+02 -0.74011394046E+02  0.12500000000E+03  0.80419002446E+02 0. -1.
</event>
<event>
 4    1  0.1599584E-001  0.1250000E+03  0.7546771E-02  0.1126479E+00
        -11   -1    0    0    0    0  0.00000000000E+00  0.00000000000E+00  0.12500000000E+03  0.12500000000E+03  0.00000000000E+00 0.  1.
         11   -1    0    0    0    0 -0.00000000000E+00 -0.00000000000E+00 -0.12500000000E+03  0.12500000000E+03  0.00000000000E+00 0. -1.
         24    1    1    2    0    0  0.50194510293E+02 -0.30144324170E+02  0.75694219743E+02  0.12500000000E+03  0.80419002446E+02 0.  1.
        -24    1    1    2    0    0 -0.50194510293E+02  0.30144324170E+02 -0.75694219743E+02  0.12500000000E+03  0.80419002446E+02 0. -1.
</event>
<event>
 4    1  0.1599584E-001  0.1250000E+03  0.7546771E-02  0.1126479E+00
        -11   -1    0    0    0    0  0.00000000000E+00  0.00000000000E+00  0.12500000000E+03  0.12500000000E+03  0.00000000000E+00 0.  1.
         11   -1    0    0    0    0 -0.00000000000E+00 -0.00000000000E+00 -0.12500000000E+03  0.12500000000E+03  0.00000000000E+00 0. -1.
         24    1    1    2    0    0 -0.13879638773E+02  0.53882273529E+02  0.77857820882E+02  0.12500000000E+03  0.80419002446E+02 0.  1.
        -24    1    1    2    0    0  0.13879638773E+02 -0.53882273529E+02 -0.77857820882E+02  0.12500000000E+03  0.80419002446E+02 0. -1.
</event>
<event>
 4    1  0.1599584E-001  0.1250000E+03  0.7546771E-02  0.1126479E+00
        -11   -1    0    0    0    0  0.00000000000E+00  0.00000000000E+00  0.12500000000E+03  0.12500000000E+03  0.00000000000E+00 0.  1.
         11   -1    0    0    0    0 -0.00000000000E+00 -0.00000000000E+00 -0.12500000000E+03  0.12500000000E+03  0.00000000000E+00 0. -1.
         24    1    1    2    0    0  0.52444118420E+02 -0.23675736221E+02  0.76464750069E+02  0.12500000000E+03  0.80419002446E+02 0.  1.
        -24    1    1    2    0    0 -0.52444118420E+02  0.23675736221E+02 -0.76464750069E+02  0.12500000000E+03  0.80419002446E+02 0. -1.
</event>
<event>
 4    1  0.1599584E-001  0.1250000E+03  0.7546771E-02  0.1126479E+00
        -11   -1    0    0    0    0  0.00000000000E+00  0.00000000000E+00  0.12500000000E+03  0.12500000000E+03  0.00000000000E+00 0.  1.
         11   -1    0    0    0    0 -0.00000000000E+00 -0.00000000000E+00 -0.12500000000E+03  0.12500000000E+03  0.00000000000E+00 0. -1.
         24    1    1    2    0    0  0.34421329802E+02 -0.46795365900E+02  0.76047023812E+02  0.12500000000E+03  0.80419002446E+02 0.  1.
        -24    1    1    2    0    0 -0.34421329802E+02  0.46795365900E+02 -0.76047023812E+02  0.12500000000E+03  0.80419002446E+02 0. -1.
</event>
<event>
 4    1  0.1599584E-001  0.1250000E+03  0.7546771E-02  0.1126479E+00
        -11   -1    0    0    0    0  0.00000000000E+00  0.00000000000E+00  0.12500000000E+03  0.12500000000E+03  0.00000000000E+00 0.  1.
         11   -1    0    0    0    0 -0.00000000000E+00 -0.00000000000E+00 -0.12500000000E+03  0.12500000000E+03  0.00000000000E+00 0. -1.
         24    1    1    2    0    0  0.39788284943E+02 -0.79183410844E+02 -0.36120131147E+02  0.12500000000E+03  0.80419002446E+02 0. -1.
        -24    1    1    2    0    0 -0.39788284943E+02  0.79183410844E+02  0.36120131147E+02  0.12500000000E+03  0.80419002446E+02 0.  1.
</event>
<event>
 4    1  0.1599584E-001  0.1250000E+03  0.7546771E-02  0.1126479E+00
        -11   -1    0    0    0    0  0.00000000000E+00  0.00000000000E+00  0.12500000000E+03  0.12500000000E+03  0.00000000000E+00 0.  1.
         11   -1    0    0    0    0 -0.00000000000E+00 -0.00000000000E+00 -0.12500000000E+03  0.12500000000E+03  0.00000000000E+00 0. -1.
         24    1    1    2    0    0 -0.10461951786E+01 -0.74751394967E+02  0.59740425775E+02  0.12500000000E+03  0.80419002446E+02 0.  1.
        -24    1    1    2    0    0  0.10461951786E+01  0.74751394967E+02 -0.59740425775E+02  0.12500000000E+03  0.80419002446E+02 0. -1.
</event>
<event>
 4    1  0.1599584E-001  0.1250000E+03  0.7546771E-02  0.1126479E+00
        -11   -1    0    0    0    0  0.00000000000E+00  0.00000000000E+00  0.12500000000E+03  0.12500000000E+03  0.00000000000E+00 0.  1.
         11   -1    0    0    0    0 -0.00000000000E+00 -0.00000000000E+00 -0.12500000000E+03  0.12500000000E+03  0.00000000000E+00 0. -1.
         24    1    1    2    0    0 -0.84335960693E+02 -0.44993215585E+02 -0.45651211286E+01  0.12500000000E+03  0.80419002446E+02 0.  0.
        -24    1    1    2    0    0  0.84335960693E+02  0.44993215585E+02  0.45651211286E+01  0.12500000000E+03  0.80419002446E+02 0. -1.
</event>
<event>
 4    1  0.1599584E-001  0.1250000E+03  0.7546771E-02  0.1126479E+00
        -11   -1    0    0    0    0  0.00000000000E+00  0.00000000000E+00  0.12500000000E+03  0.12500000000E+03  0.00000000000E+00 0.  1.
         11   -1    0    0    0    0 -0.00000000000E+00 -0.00000000000E+00 -0.12500000000E+03  0.12500000000E+03  0.00000000000E+00 0. -1.
         24    1    1    2    0    0 -0.15712998991E+02 -0.47781641685E+01  0.94276480925E+02  0.12500000000E+03  0.80419002446E+02 0.  1.
        -24    1    1    2    0    0  0.15712998991E+02  0.47781641685E+01 -0.94276480925E+02  0.12500000000E+03  0.80419002446E+02 0. -1.
</event>
<event>
 4    1  0.1599584E-001  0.1250000E+03  0.7546771E-02  0.1126479E+00
        -11   -1    0    0    0    0  0.00000000000E+00  0.00000000000E+00  0.12500000000E+03  0.12500000000E+03  0.00000000000E+00 0.  1.
         11   -1    0    0    0    0 -0.00000000000E+00 -0.00000000000E+00 -0.12500000000E+03  0.12500000000E+03  0.00000000000E+00 0. -1.
         24    1    1    2    0    0  0.38330405613E+02 -0.81594860158E+02  0.32106741458E+02  0.12500000000E+03  0.80419002446E+02 0.  1.
        -24    1    1    2    0    0 -0.38330405613E+02  0.81594860158E+02 -0.32106741458E+02  0.12500000000E+03  0.80419002446E+02 0. -1.
</event>
<event>
 4    1  0.1599584E-001  0.1250000E+03  0.7546771E-02  0.1126479E+00
        -11   -1    0    0    0    0  0.00000000000E+00  0.00000000000E+00  0.12500000000E+03  0.12500000000E+03  0.00000000000E+00 0.  1.
         11   -1    0    0    0    0 -0.00000000000E+00 -0.00000000000E+00 -0.12500000000E+03  0.12500000000E+03  0.00000000000E+00 0. -1.
         24    1    1    2    0    0  0.83034139146E+01  0.93379201780E+02  0.19213589928E+02  0.12500000000E+03  0.80419002446E+02 0.  1.
        -24    1    1    2    0    0 -0.83034139146E+01 -0.93379201780E+02 -0.19213589928E+02  0.12500000000E+03  0.80419002446E+02 0.  0.
</event>
<event>
 4    1  0.1599584E-001  0.1250000E+03  0.7546771E-02  0.1126479E+00
        -11   -1    0    0    0    0  0.00000000000E+00  0.00000000000E+00  0.12500000000E+03  0.12500000000E+03  0.00000000000E+00 0.  1.
         11   -1    0    0    0    0 -0.00000000000E+00 -0.00000000000E+00 -0.12500000000E+03  0.12500000000E+03  0.00000000000E+00 0. -1.
         24    1    1    2    0    0 -0.51475872195E+02 -0.76827008475E+01  0.80305633271E+02  0.12500000000E+03  0.80419002446E+02 0.  1.
        -24    1    1    2    0    0  0.51475872195E+02  0.76827008475E+01 -0.80305633271E+02  0.12500000000E+03  0.80419002446E+02 0. -1.
</event>
<event>
 4    1  0.1599584E-001  0.1250000E+03  0.7546771E-02  0.1126479E+00
        -11   -1    0    0    0    0  0.00000000000E+00  0.00000000000E+00  0.12500000000E+03  0.12500000000E+03  0.00000000000E+00 0.  1.
         11   -1    0    0    0    0 -0.00000000000E+00 -0.00000000000E+00 -0.12500000000E+03  0.12500000000E+03  0.00000000000E+00 0. -1.
         24    1    1    2    0    0  0.10646653321E+02 -0.22567672990E+02  0.92385783292E+02  0.12500000000E+03  0.80419002446E+02 0.  1.
        -24    1    1    2    0    0 -0.10646653321E+02  0.22567672990E+02 -0.92385783292E+02  0.12500000000E+03  0.80419002446E+02 0. -1.
</event>
<event>
 4    1  0.1599584E-001  0.1250000E+03  0.7546771E-02  0.1126479E+00
        -11   -1    0    0    0    0  0.00000000000E+00  0.00000000000E+00  0.12500000000E+03  0.12500000000E+03  0.00000000000E+00 0.  1.
         11   -1    0    0    0    0 -0.00000000000E+00 -0.00000000000E+00 -0.12500000000E+03  0.12500000000E+03  0.00000000000E+00 0. -1.
         24    1    1    2    0    0 -0.80445446867E+01 -0.78997713840E+02  0.53408150637E+02  0.12500000000E+03  0.80419002446E+02 0.  1.
        -24    1    1    2    0    0  0.80445446867E+01  0.78997713840E+02 -0.53408150637E+02  0.12500000000E+03  0.80419002446E+02 0. -1.
</event>
<event>
 4    1  0.1599584E-001  0.1250000E+03  0.7546771E-02  0.1126479E+00
        -11   -1    0    0    0    0  0.00000000000E+00  0.00000000000E+00  0.12500000000E+03  0.12500000000E+03  0.00000000000E+00 0.  1.
         11   -1    0    0    0    0 -0.00000000000E+00 -0.00000000000E+00 -0.12500000000E+03  0.12500000000E+03  0.00000000000E+00 0. -1.
         24    1    1    2    0    0 -0.48960321638E+01  0.74424114119E+02  0.59957185993E+02  0.12500000000E+03  0.80419002446E+02 0.  1.
        -24    1    1    2    0    0  0.48960321638E+01 -0.74424114119E+02 -0.59957185993E+02  0.12500000000E+03  0.80419002446E+02 0.  0.
</event>
<event>
 4    1  0.1599584E-001  0.1250000E+03  0.7546771E-02  0.1126479E+00
        -11   -1    0    0    0    0  0.00000000000E+00  0.00000000000E+00  0.12500000000E+03  0.12500000000E+03  0.00000000000E+00 0.  1.
         11   -1    0    0    0    0 -0.00000000000E+00 -0.00000000000E+00 -0.12500000000E+03  0.12500000000E+03  0.00000000000E+00 0. -1.
         24    1    1    2    0    0 -0.49866542330E+02 -0.42395911550E+02  0.69811880691E+02  0.12500000000E+03  0.80419002446E+02 0.  0.
        -24    1    1    2    0    0  0.49866542330E+02  0.42395911550E+02 -0.69811880691E+02  0.12500000000E+03  0.80419002446E+02 0.  1.
</event>
<event>
 4    1  0.1599584E-001  0.1250000E+03  0.7546771E-02  0.1126479E+00
        -11   -1    0    0    0    0  0.00000000000E+00  0.00000000000E+00  0.12500000000E+03  0.12500000000E+03  0.00000000000E+00 0.  1.
         11   -1    0    0    0    0 -0.00000000000E+00 -0.00000000000E+00 -0.12500000000E+03  0.12500000000E+03  0.00000000000E+00 0. -1.
         24    1    1    2    0    0 -0.93711936781E+01 -0.34806046155E+02  0.88648203173E+02  0.12500000000E+03  0.80419002446E+02 0.  1.
        -24    1    1    2    0    0  0.93711936781E+01  0.34806046155E+02 -0.88648203173E+02  0.12500000000E+03  0.80419002446E+02 0. -1.
</event>
<event>
 4    1  0.1599584E-001  0.1250000E+03  0.7546771E-02  0.1126479E+00
        -11   -1    0    0    0    0  0.00000000000E+00  0.00000000000E+00  0.12500000000E+03  0.12500000000E+03  0.00000000000E+00 0.  1.
         11   -1    0    0    0    0 -0.00000000000E+00 -0.00000000000E+00 -0.12500000000E+03  0.12500000000E+03  0.00000000000E+00 0. -1.
         24    1    1    2    0    0 -0.95410068940E+02 -0.73960652921E+01 -0.31759369266E-01  0.12500000000E+03  0.80419002446E+02 0.  0.
        -24    1    1    2    0    0  0.95410068940E+02  0.73960652921E+01  0.31759369266E-01  0.12500000000E+03  0.80419002446E+02 0. -1.
</event>
<event>
 4    1  0.1599584E-001  0.1250000E+03  0.7546771E-02  0.1126479E+00
        -11   -1    0    0    0    0  0.00000000000E+00  0.00000000000E+00  0.12500000000E+03  0.12500000000E+03  0.00000000000E+00 0.  1.
         11   -1    0    0    0    0 -0.00000000000E+00 -0.00000000000E+00 -0.12500000000E+03  0.12500000000E+03  0.00000000000E+00 0. -1.
         24    1    1    2    0    0 -0.78229903467E+02  0.21811554939E+02  0.50617411237E+02  0.12500000000E+03  0.80419002446E+02 0.  1.
        -24    1    1    2    0    0  0.78229903467E+02 -0.21811554939E+02 -0.50617411237E+02  0.12500000000E+03  0.80419002446E+02 0. -1.
</event>
<event>
 4    1  0.1599584E-001  0.1250000E+03  0.7546771E-02  0.1126479E+00
        -11   -1    0    0    0    0  0.00000000000E+00  0.00000000000E+00  0.12500000000E+03  0.12500000000E+03  0.00000000000E+00 0.  1.
         11   -1    0    0    0    0 -0.00000000000E+00 -0.00000000000E+00 -0.12500000000E+03  0.12500000000E+03  0.00000000000E+00 0. -1.
         24    1    1    2    0    0  0.42394354070E+01  0.63050297873E+00  0.95600280852E+02  0.12500000000E+03  0.80419002446E+02 0.  0.
        -24    1    1    2    0    0 -0.42394354070E+01 -0.63050297873E+00 -0.95600280852E+02  0.12500000000E+03  0.80419002446E+02 0. -1.
</event>
<event>
 4    1  0.1599584E-001  0.1250000E+03  0.7546771E-02  0.1126479E+00
        -11   -1    0    0    0    0  0.00000000000E+00  0.00000000000E+00  0.12500000000E+03  0.12500000000E+03  0.00000000000E+00 0.  1.
         11   -1    0    0    0    0 -0.00000000000E+00 -0.00000000000E+00 -0.12500000000E+03  0.12500000000E+03  0.00000000000E+00 0. -1.
         24    1    1    2    0    0  0.26940135091E+02  0.39648909837E+02  0.82824978815E+02  0.12500000000E+03  0.80419002446E+02 0.  1.
        -24    1    1    2    0    0 -0.26940135091E+02 -0.39648909837E+02 -0.82824978815E+02  0.12500000000E+03  0.80419002446E+02 0. -1.
</event>
<event>
 4    1  0.1599584E-001  0.1250000E+03  0.7546771E-02  0.1126479E+00
        -11   -1    0    0    0    0  0.00000000000E+00  0.00000000000E+00  0.12500000000E+03  0.12500000000E+03  0.00000000000E+00 0.  1.
         11   -1    0    0    0    0 -0.00000000000E+00 -0.00000000000E+00 -0.12500000000E+03  0.12500000000E+03  0.00000000000E+00 0. -1.
         24    1    1    2    0    0  0.20110230447E+01  0.45522369343E+02  0.84151373853E+02  0.12500000000E+03  0.80419002446E+02 0. -1.
        -24    1    1    2    0    0 -0.20110230447E+01 -0.45522369343E+02 -0.84151373853E+02  0.12500000000E+03  0.80419002446E+02 0.  0.
</event>
<event>
 4    1  0.1599584E-001  0.1250000E+03  0.7546771E-02  0.1126479E+00
        -11   -1    0    0    0    0  0.00000000000E+00  0.00000000000E+00  0.12500000000E+03  0.12500000000E+03  0.00000000000E+00 0.  1.
         11   -1    0    0    0    0 -0.00000000000E+00 -0.00000000000E+00 -0.12500000000E+03  0.12500000000E+03  0.00000000000E+00 0. -1.
         24    1    1    2    0    0  0.14954764276E+02  0.27792632415E+02  0.90342175392E+02  0.12500000000E+03  0.80419002446E+02 0.  1.
        -24    1    1    2    0    0 -0.14954764276E+02 -0.27792632415E+02 -0.90342175392E+02  0.12500000000E+03  0.80419002446E+02 0. -1.
</event>
<event>
 4    1  0.1599584E-001  0.1250000E+03  0.7546771E-02  0.1126479E+00
        -11   -1    0    0    0    0  0.00000000000E+00  0.00000000000E+00  0.12500000000E+03  0.12500000000E+03  0.00000000000E+00 0.  1.
         11   -1    0    0    0    0 -0.00000000000E+00 -0.00000000000E+00 -0.12500000000E+03  0.12500000000E+03  0.00000000000E+00 0. -1.
         24    1    1    2    0    0 -0.20424673220E+02 -0.47148539918E+01  0.93372302753E+02  0.12500000000E+03  0.80419002446E+02 0.  1.
        -24    1    1    2    0    0  0.20424673220E+02  0.47148539918E+01 -0.93372302753E+02  0.12500000000E+03  0.80419002446E+02 0. -1.
</event>
<event>
 4    1  0.1599584E-001  0.1250000E+03  0.7546771E-02  0.1126479E+00
        -11   -1    0    0    0    0  0.00000000000E+00  0.00000000000E+00  0.12500000000E+03  0.12500000000E+03  0.00000000000E+00 0.  1.
         11   -1    0    0    0    0 -0.00000000000E+00 -0.00000000000E+00 -0.12500000000E+03  0.12500000000E+03  0.00000000000E+00 0. -1.
         24    1    1    2    0    0  0.12766230766E+01 -0.17288420963E+02  0.94113042559E+02  0.12500000000E+03  0.80419002446E+02 0.  1.
        -24    1    1    2    0    0 -0.12766230766E+01  0.17288420963E+02 -0.94113042559E+02  0.12500000000E+03  0.80419002446E+02 0. -1.
</event>
<event>
 4    1  0.1599584E-001  0.1250000E+03  0.7546771E-02  0.1126479E+00
        -11   -1    0    0    0    0  0.00000000000E+00  0.00000000000E+00  0.12500000000E+03  0.12500000000E+03  0.00000000000E+00 0.  1.
         11   -1    0    0    0    0 -0.00000000000E+00 -0.00000000000E+00 -0.12500000000E+03  0.12500000000E+03  0.00000000000E+00 0. -1.
         24    1    1    2    0    0 -0.26011473248E+02 -0.46454520706E+02  0.79518330032E+02  0.12500000000E+03  0.80419002446E+02 0.  1.
        -24    1    1    2    0    0  0.26011473248E+02  0.46454520706E+02 -0.79518330032E+02  0.12500000000E+03  0.80419002446E+02 0. -1.
</event>
<event>
 4    1  0.1599584E-001  0.1250000E+03  0.7546771E-02  0.1126479E+00
        -11   -1    0    0    0    0  0.00000000000E+00  0.00000000000E+00  0.12500000000E+03  0.12500000000E+03  0.00000000000E+00 0.  1.
         11   -1    0    0    0    0 -0.00000000000E+00 -0.00000000000E+00 -0.12500000000E+03  0.12500000000E+03  0.00000000000E+00 0. -1.
         24    1    1    2    0    0  0.78975714996E+02 -0.13109669756E+02  0.52428589962E+02  0.12500000000E+03  0.80419002446E+02 0.  1.
        -24    1    1    2    0    0 -0.78975714996E+02  0.13109669756E+02 -0.52428589962E+02  0.12500000000E+03  0.80419002446E+02 0. -1.
</event>
<event>
 4    1  0.1599584E-001  0.1250000E+03  0.7546771E-02  0.1126479E+00
        -11   -1    0    0    0    0  0.00000000000E+00  0.00000000000E+00  0.12500000000E+03  0.12500000000E+03  0.00000000000E+00 0.  1.
         11   -1    0    0    0    0 -0.00000000000E+00 -0.00000000000E+00 -0.12500000000E+03  0.12500000000E+03  0.00000000000E+00 0. -1.
         24    1    1    2    0    0  0.11776701046E+02  0.57059393816E+02  0.75916526103E+02  0.12500000000E+03  0.80419002446E+02 0.  1.
        -24    1    1    2    0    0 -0.11776701046E+02 -0.57059393816E+02 -0.75916526103E+02  0.12500000000E+03  0.80419002446E+02 0. -1.
</event>
<event>
 4    1  0.1599584E-001  0.1250000E+03  0.7546771E-02  0.1126479E+00
        -11   -1    0    0    0    0  0.00000000000E+00  0.00000000000E+00  0.12500000000E+03  0.12500000000E+03  0.00000000000E+00 0.  1.
         11   -1    0    0    0    0 -0.00000000000E+00 -0.00000000000E+00 -0.12500000000E+03  0.12500000000E+03  0.00000000000E+00 0. -1.
         24    1    1    2    0    0  0.23215074419E+02  0.41016713919E+02  0.83285494203E+02  0.12500000000E+03  0.80419002446E+02 0.  1.
        -24    1    1    2    0    0 -0.23215074419E+02 -0.41016713919E+02 -0.83285494203E+02  0.12500000000E+03  0.80419002446E+02 0. -1.
</event>
<event>
 4    1  0.1599584E-001  0.1250000E+03  0.7546771E-02  0.1126479E+00
        -11   -1    0    0    0    0  0.00000000000E+00  0.00000000000E+00  0.12500000000E+03  0.12500000000E+03  0.00000000000E+00 0.  1.
         11   -1    0    0    0    0 -0.00000000000E+00 -0.00000000000E+00 -0.12500000000E+03  0.12500000000E+03  0.00000000000E+00 0. -1.
         24    1    1    2    0    0  0.38743013484E+02 -0.53275893996E+01  0.87340596191E+02  0.12500000000E+03  0.80419002446E+02 0.  1.
        -24    1    1    2    0    0 -0.38743013484E+02  0.53275893996E+01 -0.87340596191E+02  0.12500000000E+03  0.80419002446E+02 0. -1.
</event>
<event>
 4    1  0.1599584E-001  0.1250000E+03  0.7546771E-02  0.1126479E+00
        -11   -1    0    0    0    0  0.00000000000E+00  0.00000000000E+00  0.12500000000E+03  0.12500000000E+03  0.00000000000E+00 0.  1.
         11   -1    0    0    0    0 -0.00000000000E+00 -0.00000000000E+00 -0.12500000000E+03  0.12500000000E+03  0.00000000000E+00 0. -1.
         24    1    1    2    0    0 -0.92803491818E+02 -0.22705642814E+02  0.54543318871E+01  0.12500000000E+03  0.80419002446E+02 0.  1.
        -24    1    1    2    0    0  0.92803491818E+02  0.22705642814E+02 -0.54543318871E+01  0.12500000000E+03  0.80419002446E+02 0. -1.
</event>
<event>
 4    1  0.1599584E-001  0.1250000E+03  0.7546771E-02  0.1126479E+00
        -11   -1    0    0    0    0  0.00000000000E+00  0.00000000000E+00  0.12500000000E+03  0.12500000000E+03  0.00000000000E+00 0.  1.
         11   -1    0    0    0    0 -0.00000000000E+00 -0.00000000000E+00 -0.12500000000E+03  0.12500000000E+03  0.00000000000E+00 0. -1.
         24    1    1    2    0    0  0.16011297786E+02 -0.53725231749E+02  0.77556572013E+02  0.12500000000E+03  0.80419002446E+02 0.  1.
        -24    1    1    2    0    0 -0.16011297786E+02  0.53725231749E+02 -0.77556572013E+02  0.12500000000E+03  0.80419002446E+02 0. -1.
</event>
<event>
 4    1  0.1599584E-001  0.1250000E+03  0.7546771E-02  0.1126479E+00
        -11   -1    0    0    0    0  0.00000000000E+00  0.00000000000E+00  0.12500000000E+03  0.12500000000E+03  0.00000000000E+00 0.  1.
         11   -1    0    0    0    0 -0.00000000000E+00 -0.00000000000E+00 -0.12500000000E+03  0.12500000000E+03  0.00000000000E+00 0. -1.
         24    1    1    2    0    0  0.62105381495E+02 -0.62559160699E+02  0.37243214787E+02  0.12500000000E+03  0.80419002446E+02 0.  1.
        -24    1    1    2    0    0 -0.62105381495E+02  0.62559160699E+02 -0.37243214787E+02  0.12500000000E+03  0.80419002446E+02 0. -1.
</event>
<event>
 4    1  0.1599584E-001  0.1250000E+03  0.7546771E-02  0.1126479E+00
        -11   -1    0    0    0    0  0.00000000000E+00  0.00000000000E+00  0.12500000000E+03  0.12500000000E+03  0.00000000000E+00 0.  1.
         11   -1    0    0    0    0 -0.00000000000E+00 -0.00000000000E+00 -0.12500000000E+03  0.12500000000E+03  0.00000000000E+00 0. -1.
         24    1    1    2    0    0 -0.61792253679E+02  0.35844244438E+02  0.63676460105E+02  0.12500000000E+03  0.80419002446E+02 0.  1.
        -24    1    1    2    0    0  0.61792253679E+02 -0.35844244438E+02 -0.63676460105E+02  0.12500000000E+03  0.80419002446E+02 0. -1.
</event>
<event>
 4    1  0.1599584E-001  0.1250000E+03  0.7546771E-02  0.1126479E+00
        -11   -1    0    0    0    0  0.00000000000E+00  0.00000000000E+00  0.12500000000E+03  0.12500000000E+03  0.00000000000E+00 0.  1.
         11   -1    0    0    0    0 -0.00000000000E+00 -0.00000000000E+00 -0.12500000000E+03  0.12500000000E+03  0.00000000000E+00 0. -1.
         24    1    1    2    0    0 -0.36408672089E+02 -0.48781902260E+01  0.88365128317E+02  0.12500000000E+03  0.80419002446E+02 0.  1.
        -24    1    1    2    0    0  0.36408672089E+02  0.48781902260E+01 -0.88365128317E+02  0.12500000000E+03  0.80419002446E+02 0. -1.
</event>
<event>
 4    1  0.1599584E-001  0.1250000E+03  0.7546771E-02  0.1126479E+00
        -11   -1    0    0    0    0  0.00000000000E+00  0.00000000000E+00  0.12500000000E+03  0.12500000000E+03  0.00000000000E+00 0.  1.
         11   -1    0    0    0    0 -0.00000000000E+00 -0.00000000000E+00 -0.12500000000E+03  0.12500000000E+03  0.00000000000E+00 0. -1.
         24    1    1    2    0    0 -0.65739855772E+02 -0.60200375503E+02  0.34813362347E+02  0.12500000000E+03  0.80419002446E+02 0.  0.
        -24    1    1    2    0    0  0.65739855772E+02  0.60200375503E+02 -0.34813362347E+02  0.12500000000E+03  0.80419002446E+02 0.  1.
</event>
<event>
 4    1  0.1599584E-001  0.1250000E+03  0.7546771E-02  0.1126479E+00
        -11   -1    0    0    0    0  0.00000000000E+00  0.00000000000E+00  0.12500000000E+03  0.12500000000E+03  0.00000000000E+00 0.  1.
         11   -1    0    0    0    0 -0.00000000000E+00 -0.00000000000E+00 -0.12500000000E+03  0.12500000000E+03  0.00000000000E+00 0. -1.
         24    1    1    2    0    0  0.24568007933E+00  0.13816320860E+02  0.94693362834E+02  0.12500000000E+03  0.80419002446E+02 0.  1.
        -24    1    1    2    0    0 -0.24568007933E+00 -0.13816320860E+02 -0.94693362834E+02  0.12500000000E+03  0.80419002446E+02 0. -1.
</event>
<event>
 4    1  0.1599584E-001  0.1250000E+03  0.7546771E-02  0.1126479E+00
        -11   -1    0    0    0    0  0.00000000000E+00  0.00000000000E+00  0.12500000000E+03  0.12500000000E+03  0.00000000000E+00 0.  1.
         11   -1    0    0    0    0 -0.00000000000E+00 -0.00000000000E+00 -0.12500000000E+03  0.12500000000E+03  0.00000000000E+00 0. -1.
         24    1    1    2    0    0  0.56640025170E+02 -0.21666254778E+02  0.74028811947E+02  0.12500000000E+03  0.80419002446E+02 0.  1.
        -24    1    1    2    0    0 -0.56640025170E+02  0.21666254778E+02 -0.74028811947E+02  0.12500000000E+03  0.80419002446E+02 0. -1.
</event>
<event>
 4    1  0.1599584E-001  0.1250000E+03  0.7546771E-02  0.1126479E+00
        -11   -1    0    0    0    0  0.00000000000E+00  0.00000000000E+00  0.12500000000E+03  0.12500000000E+03  0.00000000000E+00 0.  1.
         11   -1    0    0    0    0 -0.00000000000E+00 -0.00000000000E+00 -0.12500000000E+03  0.12500000000E+03  0.00000000000E+00 0. -1.
         24    1    1    2    0    0  0.42393364898E+02  0.31912723987E+01  0.85734488035E+02  0.12500000000E+03  0.80419002446E+02 0.  1.
        -24    1    1    2    0    0 -0.42393364898E+02 -0.31912723987E+01 -0.85734488035E+02  0.12500000000E+03  0.80419002446E+02 0. -1.
</event>
<event>
 4    1  0.1599584E-001  0.1250000E+03  0.7546771E-02  0.1126479E+00
        -11   -1    0    0    0    0  0.00000000000E+00  0.00000000000E+00  0.12500000000E+03  0.12500000000E+03  0.00000000000E+00 0.  1.
         11   -1    0    0    0    0 -0.00000000000E+00 -0.00000000000E+00 -0.12500000000E+03  0.12500000000E+03  0.00000000000E+00 0. -1.
         24    1    1    2    0    0  0.28043726664E+02 -0.32601582554E+02  0.85489591503E+02  0.12500000000E+03  0.80419002446E+02 0.  1.
        -24    1    1    2    0    0 -0.28043726664E+02  0.32601582554E+02 -0.85489591503E+02  0.12500000000E+03  0.80419002446E+02 0. -1.
</event>
<event>
 4    1  0.1599584E-001  0.1250000E+03  0.7546771E-02  0.1126479E+00
        -11   -1    0    0    0    0  0.00000000000E+00  0.00000000000E+00  0.12500000000E+03  0.12500000000E+03  0.00000000000E+00 0.  1.
         11   -1    0    0    0    0 -0.00000000000E+00 -0.00000000000E+00 -0.12500000000E+03  0.12500000000E+03  0.00000000000E+00 0. -1.
         24    1    1    2    0    0  0.48737890415E+02  0.82019328325E+02 -0.74318143566E+01  0.12500000000E+03  0.80419002446E+02 0.  1.
        -24    1    1    2    0    0 -0.48737890415E+02 -0.82019328325E+02  0.74318143566E+01  0.12500000000E+03  0.80419002446E+02 0. -1.
</event>
<event>
 4    1  0.1599584E-001  0.1250000E+03  0.7546771E-02  0.1126479E+00
        -11   -1    0    0    0    0  0.00000000000E+00  0.00000000000E+00  0.12500000000E+03  0.12500000000E+03  0.00000000000E+00 0.  1.
         11   -1    0    0    0    0 -0.00000000000E+00 -0.00000000000E+00 -0.12500000000E+03  0.12500000000E+03  0.00000000000E+00 0. -1.
         24    1    1    2    0    0  0.41224775777E+02 -0.96831964982E+01  0.85816884198E+02  0.12500000000E+03  0.80419002446E+02 0.  1.
        -24    1    1    2    0    0 -0.41224775777E+02  0.96831964982E+01 -0.85816884198E+02  0.12500000000E+03  0.80419002446E+02 0. -1.
</event>
<event>
 4    1  0.1599584E-001  0.1250000E+03  0.7546771E-02  0.1126479E+00
        -11   -1    0    0    0    0  0.00000000000E+00  0.00000000000E+00  0.12500000000E+03  0.12500000000E+03  0.00000000000E+00 0.  1.
         11   -1    0    0    0    0 -0.00000000000E+00 -0.00000000000E+00 -0.12500000000E+03  0.12500000000E+03  0.00000000000E+00 0. -1.
         24    1    1    2    0    0  0.33367071743E+02 -0.83685252691E+02  0.32267647123E+02  0.12500000000E+03  0.80419002446E+02 0.  1.
        -24    1    1    2    0    0 -0.33367071743E+02  0.83685252691E+02 -0.32267647123E+02  0.12500000000E+03  0.80419002446E+02 0. -1.
</event>
<event>
 4    1  0.1599584E-001  0.1250000E+03  0.7546771E-02  0.1126479E+00
        -11   -1    0    0    0    0  0.00000000000E+00  0.00000000000E+00  0.12500000000E+03  0.12500000000E+03  0.00000000000E+00 0.  1.
         11   -1    0    0    0    0 -0.00000000000E+00 -0.00000000000E+00 -0.12500000000E+03  0.12500000000E+03  0.00000000000E+00 0. -1.
         24    1    1    2    0    0  0.10573654243E+01 -0.29907746652E+02  0.90896604525E+02  0.12500000000E+03  0.80419002446E+02 0.  1.
        -24    1    1    2    0    0 -0.10573654243E+01  0.29907746652E+02 -0.90896604525E+02  0.12500000000E+03  0.80419002446E+02 0. -1.
</event>
<event>
 4    1  0.1599584E-001  0.1250000E+03  0.7546771E-02  0.1126479E+00
        -11   -1    0    0    0    0  0.00000000000E+00  0.00000000000E+00  0.12500000000E+03  0.12500000000E+03  0.00000000000E+00 0.  1.
         11   -1    0    0    0    0 -0.00000000000E+00 -0.00000000000E+00 -0.12500000000E+03  0.12500000000E+03  0.00000000000E+00 0. -1.
         24    1    1    2    0    0  0.87797173152E+02  0.37878400975E+02  0.38297743739E+01  0.12500000000E+03  0.80419002446E+02 0.  0.
        -24    1    1    2    0    0 -0.87797173152E+02 -0.37878400975E+02 -0.38297743739E+01  0.12500000000E+03  0.80419002446E+02 0.  0.
</event>
<event>
 4    1  0.1599584E-001  0.1250000E+03  0.7546771E-02  0.1126479E+00
        -11   -1    0    0    0    0  0.00000000000E+00  0.00000000000E+00  0.12500000000E+03  0.12500000000E+03  0.00000000000E+00 0.  1.
         11   -1    0    0    0    0 -0.00000000000E+00 -0.00000000000E+00 -0.12500000000E+03  0.12500000000E+03  0.00000000000E+00 0. -1.
         24    1    1    2    0    0  0.84070314522E+02 -0.20359199068E+02  0.40932496566E+02  0.12500000000E+03  0.80419002446E+02 0.  1.
        -24    1    1    2    0    0 -0.84070314522E+02  0.20359199068E+02 -0.40932496566E+02  0.12500000000E+03  0.80419002446E+02 0. -1.
</event>
<event>
 4    1  0.1599584E-001  0.1250000E+03  0.7546771E-02  0.1126479E+00
        -11   -1    0    0    0    0  0.00000000000E+00  0.00000000000E+00  0.12500000000E+03  0.12500000000E+03  0.00000000000E+00 0.  1.
         11   -1    0    0    0    0 -0.00000000000E+00 -0.00000000000E+00 -0.12500000000E+03  0.12500000000E+03  0.00000000000E+00 0. -1.
         24    1    1    2    0    0  0.55552853438E+02  0.33997036717E+02  0.70113237088E+02  0.12500000000E+03  0.80419002446E+02 0.  1.
        -24    1    1    2    0    0 -0.55552853438E+02 -0.33997036717E+02 -0.70113237088E+02  0.12500000000E+03  0.80419002446E+02 0. -1.
</event>
<event>
 4    1  0.1599584E-001  0.1250000E+03  0.7546771E-02  0.1126479E+00
        -11   -1    0    0    0    0  0.00000000000E+00  0.00000000000E+00  0.12500000000E+03  0.12500000000E+03  0.00000000000E+00 0.  1.
         11   -1    0    0    0    0 -0.00000000000E+00 -0.00000000000E+00 -0.12500000000E+03  0.12500000000E+03  0.00000000000E+00 0. -1.
         24    1    1    2    0    0  0.12584218660E+02 -0.33635566327E+02  0.88702142952E+02  0.12500000000E+03  0.80419002446E+02 0.  1.
        -24    1    1    2    0    0 -0.12584218660E+02  0.33635566327E+02 -0.88702142952E+02  0.12500000000E+03  0.80419002446E+02 0. -1.
</event>
<event>
 4    1  0.1599584E-001  0.1250000E+03  0.7546771E-02  0.1126479E+00
        -11   -1    0    0    0    0  0.00000000000E+00  0.00000000000E+00  0.12500000000E+03  0.12500000000E+03  0.00000000000E+00 0.  1.
         11   -1    0    0    0    0 -0.00000000000E+00 -0.00000000000E+00 -0.12500000000E+03  0.12500000000E+03  0.00000000000E+00 0. -1.
         24    1    1    2    0    0  0.41562488020E+01  0.92991134074E+02 -0.22207175083E+02  0.12500000000E+03  0.80419002446E+02 0. -1.
        -24    1    1    2    0    0 -0.41562488020E+01 -0.92991134074E+02  0.22207175083E+02  0.12500000000E+03  0.80419002446E+02 0.  1.
</event>
<event>
 4    1  0.1599584E-001  0.1250000E+03  0.7546771E-02  0.1126479E+00
        -11   -1    0    0    0    0  0.00000000000E+00  0.00000000000E+00  0.12500000000E+03  0.12500000000E+03  0.00000000000E+00 0.  1.
         11   -1    0    0    0    0 -0.00000000000E+00 -0.00000000000E+00 -0.12500000000E+03  0.12500000000E+03  0.00000000000E+00 0. -1.
         24    1    1    2    0    0  0.10264411743E+02  0.18218745205E+02  0.93383634649E+02  0.12500000000E+03  0.80419002446E+02 0.  1.
        -24    1    1    2    0    0 -0.10264411743E+02 -0.18218745205E+02 -0.93383634649E+02  0.12500000000E+03  0.80419002446E+02 0. -1.
</event>
<event>
 4    1  0.1599584E-001  0.1250000E+03  0.7546771E-02  0.1126479E+00
        -11   -1    0    0    0    0  0.00000000000E+00  0.00000000000E+00  0.12500000000E+03  0.12500000000E+03  0.00000000000E+00 0.  1.
         11   -1    0    0    0    0 -0.00000000000E+00 -0.00000000000E+00 -0.12500000000E+03  0.12500000000E+03  0.00000000000E+00 0. -1.
         24    1    1    2    0    0  0.19985253944E+02 -0.73917493754E+02  0.57398412762E+02  0.12500000000E+03  0.80419002446E+02 0.  1.
        -24    1    1    2    0    0 -0.19985253944E+02  0.73917493754E+02 -0.57398412762E+02  0.12500000000E+03  0.80419002446E+02 0. -1.
</event>
<event>
 4    1  0.1599584E-001  0.1250000E+03  0.7546771E-02  0.1126479E+00
        -11   -1    0    0    0    0  0.00000000000E+00  0.00000000000E+00  0.12500000000E+03  0.12500000000E+03  0.00000000000E+00 0.  1.
         11   -1    0    0    0    0 -0.00000000000E+00 -0.00000000000E+00 -0.12500000000E+03  0.12500000000E+03  0.00000000000E+00 0. -1.
         24    1    1    2    0    0 -0.41895167567E+01  0.93930786497E+02  0.17811213966E+02  0.12500000000E+03  0.80419002446E+02 0.  0.
        -24    1    1    2    0    0  0.41895167567E+01 -0.93930786497E+02 -0.17811213966E+02  0.12500000000E+03  0.80419002446E+02 0.  1.
</event>
<event>
 4    1  0.1599584E-001  0.1250000E+03  0.7546771E-02  0.1126479E+00
        -11   -1    0    0    0    0  0.00000000000E+00  0.00000000000E+00  0.12500000000E+03  0.12500000000E+03  0.00000000000E+00 0.  1.
         11   -1    0    0    0    0 -0.00000000000E+00 -0.00000000000E+00 -0.12500000000E+03  0.12500000000E+03  0.00000000000E+00 0. -1.
         24    1    1    2    0    0  0.86856151892E+01  0.89253243190E+02  0.33409620088E+02  0.12500000000E+03  0.80419002446E+02 0.  1.
        -24    1    1    2    0    0 -0.86856151892E+01 -0.89253243190E+02 -0.33409620088E+02  0.12500000000E+03  0.80419002446E+02 0.  0.
</event>
<event>
 4    1  0.1599584E-001  0.1250000E+03  0.7546771E-02  0.1126479E+00
        -11   -1    0    0    0    0  0.00000000000E+00  0.00000000000E+00  0.12500000000E+03  0.12500000000E+03  0.00000000000E+00 0.  1.
         11   -1    0    0    0    0 -0.00000000000E+00 -0.00000000000E+00 -0.12500000000E+03  0.12500000000E+03  0.00000000000E+00 0. -1.
         24    1    1    2    0    0  0.76721087717E+02  0.43225297835E+02  0.37459743355E+02  0.12500000000E+03  0.80419002446E+02 0.  1.
        -24    1    1    2    0    0 -0.76721087717E+02 -0.43225297835E+02 -0.37459743355E+02  0.12500000000E+03  0.80419002446E+02 0. -1.
</event>
<event>
 4    1  0.1599584E-001  0.1250000E+03  0.7546771E-02  0.1126479E+00
        -11   -1    0    0    0    0  0.00000000000E+00  0.00000000000E+00  0.12500000000E+03  0.12500000000E+03  0.00000000000E+00 0.  1.
         11   -1    0    0    0    0 -0.00000000000E+00 -0.00000000000E+00 -0.12500000000E+03  0.12500000000E+03  0.00000000000E+00 0. -1.
         24    1    1    2    0    0 -0.95414916108E+02  0.33904808196E+00  0.73254949456E+01  0.12500000000E+03  0.80419002446E+02 0.  1.
        -24    1    1    2    0    0  0.95414916108E+02 -0.33904808196E+00 -0.73254949456E+01  0.12500000000E+03  0.80419002446E+02 0. -1.
</event>
<event>
 4    1  0.1599584E-001  0.1250000E+03  0.7546771E-02  0.1126479E+00
        -11   -1    0    0    0    0  0.00000000000E+00  0.00000000000E+00  0.12500000000E+03  0.12500000000E+03  0.00000000000E+00 0.  1.
         11   -1    0    0    0    0 -0.00000000000E+00 -0.00000000000E+00 -0.12500000000E+03  0.12500000000E+03  0.00000000000E+00 0. -1.
         24    1    1    2    0    0 -0.48463978377E+02  0.49656039272E+02  0.65903752620E+02  0.12500000000E+03  0.80419002446E+02 0.  1.
        -24    1    1    2    0    0  0.48463978377E+02 -0.49656039272E+02 -0.65903752620E+02  0.12500000000E+03  0.80419002446E+02 0. -1.
</event>
<event>
 4    1  0.1599584E-001  0.1250000E+03  0.7546771E-02  0.1126479E+00
        -11   -1    0    0    0    0  0.00000000000E+00  0.00000000000E+00  0.12500000000E+03  0.12500000000E+03  0.00000000000E+00 0.  1.
         11   -1    0    0    0    0 -0.00000000000E+00 -0.00000000000E+00 -0.12500000000E+03  0.12500000000E+03  0.00000000000E+00 0. -1.
         24    1    1    2    0    0 -0.63145956174E+01  0.15897145734E+02  0.94155141577E+02  0.12500000000E+03  0.80419002446E+02 0.  0.
        -24    1    1    2    0    0  0.63145956174E+01 -0.15897145734E+02 -0.94155141577E+02  0.12500000000E+03  0.80419002446E+02 0. -1.
</event>
<event>
 4    1  0.1599584E-001  0.1250000E+03  0.7546771E-02  0.1126479E+00
        -11   -1    0    0    0    0  0.00000000000E+00  0.00000000000E+00  0.12500000000E+03  0.12500000000E+03  0.00000000000E+00 0.  1.
         11   -1    0    0    0    0 -0.00000000000E+00 -0.00000000000E+00 -0.12500000000E+03  0.12500000000E+03  0.00000000000E+00 0. -1.
         24    1    1    2    0    0 -0.48813841611E+02  0.10440270359E+02  0.81645536728E+02  0.12500000000E+03  0.80419002446E+02 0.  1.
        -24    1    1    2    0    0  0.48813841611E+02 -0.10440270359E+02 -0.81645536728E+02  0.12500000000E+03  0.80419002446E+02 0. -1.
</event>
<event>
 4    1  0.1599584E-001  0.1250000E+03  0.7546771E-02  0.1126479E+00
        -11   -1    0    0    0    0  0.00000000000E+00  0.00000000000E+00  0.12500000000E+03  0.12500000000E+03  0.00000000000E+00 0.  1.
         11   -1    0    0    0    0 -0.00000000000E+00 -0.00000000000E+00 -0.12500000000E+03  0.12500000000E+03  0.00000000000E+00 0. -1.
         24    1    1    2    0    0 -0.10582562762E+02  0.33941970154E+02  0.88846699843E+02  0.12500000000E+03  0.80419002446E+02 0.  0.
        -24    1    1    2    0    0  0.10582562762E+02 -0.33941970154E+02 -0.88846699843E+02  0.12500000000E+03  0.80419002446E+02 0. -1.
</event>
<event>
 4    1  0.1599584E-001  0.1250000E+03  0.7546771E-02  0.1126479E+00
        -11   -1    0    0    0    0  0.00000000000E+00  0.00000000000E+00  0.12500000000E+03  0.12500000000E+03  0.00000000000E+00 0.  1.
         11   -1    0    0    0    0 -0.00000000000E+00 -0.00000000000E+00 -0.12500000000E+03  0.12500000000E+03  0.00000000000E+00 0. -1.
         24    1    1    2    0    0 -0.46059997925E+02 -0.75471997956E+02  0.36609263327E+02  0.12500000000E+03  0.80419002446E+02 0.  1.
        -24    1    1    2    0    0  0.46059997925E+02  0.75471997956E+02 -0.36609263327E+02  0.12500000000E+03  0.80419002446E+02 0. -1.
</event>
<event>
 4    1  0.1599584E-001  0.1250000E+03  0.7546771E-02  0.1126479E+00
        -11   -1    0    0    0    0  0.00000000000E+00  0.00000000000E+00  0.12500000000E+03  0.12500000000E+03  0.00000000000E+00 0.  1.
         11   -1    0    0    0    0 -0.00000000000E+00 -0.00000000000E+00 -0.12500000000E+03  0.12500000000E+03  0.00000000000E+00 0. -1.
         24    1    1    2    0    0 -0.48066685060E+02  0.33209638313E+02  0.75792465035E+02  0.12500000000E+03  0.80419002446E+02 0.  0.
        -24    1    1    2    0    0  0.48066685060E+02 -0.33209638313E+02 -0.75792465035E+02  0.12500000000E+03  0.80419002446E+02 0. -1.
</event>
<event>
 4    1  0.1599584E-001  0.1250000E+03  0.7546771E-02  0.1126479E+00
        -11   -1    0    0    0    0  0.00000000000E+00  0.00000000000E+00  0.12500000000E+03  0.12500000000E+03  0.00000000000E+00 0.  1.
         11   -1    0    0    0    0 -0.00000000000E+00 -0.00000000000E+00 -0.12500000000E+03  0.12500000000E+03  0.00000000000E+00 0. -1.
         24    1    1    2    0    0  0.92101393174E+01 -0.35664490388E+02  0.88323278385E+02  0.12500000000E+03  0.80419002446E+02 0.  1.
        -24    1    1    2    0    0 -0.92101393174E+01  0.35664490388E+02 -0.88323278385E+02  0.12500000000E+03  0.80419002446E+02 0.  0.
</event>
<event>
 4    1  0.1599584E-001  0.1250000E+03  0.7546771E-02  0.1126479E+00
        -11   -1    0    0    0    0  0.00000000000E+00  0.00000000000E+00  0.12500000000E+03  0.12500000000E+03  0.00000000000E+00 0.  1.
         11   -1    0    0    0    0 -0.00000000000E+00 -0.00000000000E+00 -0.12500000000E+03  0.12500000000E+03  0.00000000000E+00 0. -1.
         24    1    1    2    0    0 -0.83858553077E+02 -0.46025109267E+02 -0.26863429445E+01  0.12500000000E+03  0.80419002446E+02 0. -1.
        -24    1    1    2    0    0  0.83858553077E+02  0.46025109267E+02  0.26863429445E+01  0.12500000000E+03  0.80419002446E+02 0.  1.
</event>
<event>
 4    1  0.1599584E-001  0.1250000E+03  0.7546771E-02  0.1126479E+00
        -11   -1    0    0    0    0  0.00000000000E+00  0.00000000000E+00  0.12500000000E+03  0.12500000000E+03  0.00000000000E+00 0.  1.
         11   -1    0    0    0    0 -0.00000000000E+00 -0.00000000000E+00 -0.12500000000E+03  0.12500000000E+03  0.00000000000E+00 0. -1.
         24    1    1    2    0    0 -0.92688235336E+01 -0.39396658577E+02  0.86716643437E+02  0.12500000000E+03  0.80419002446E+02 0.  1.
        -24    1    1    2    0    0  0.92688235336E+01  0.39396658577E+02 -0.86716643437E+02  0.12500000000E+03  0.80419002446E+02 0. -1.
</event>
<event>
 4    1  0.1599584E-001  0.1250000E+03  0.7546771E-02  0.1126479E+00
        -11   -1    0    0    0    0  0.00000000000E+00  0.00000000000E+00  0.12500000000E+03  0.12500000000E+03  0.00000000000E+00 0.  1.
         11   -1    0    0    0    0 -0.00000000000E+00 -0.00000000000E+00 -0.12500000000E+03  0.12500000000E+03  0.00000000000E+00 0. -1.
         24    1    1    2    0    0  0.77957824390E+02 -0.47538594914E+02  0.28643387642E+02  0.12500000000E+03  0.80419002446E+02 0. -1.
        -24    1    1    2    0    0 -0.77957824390E+02  0.47538594914E+02 -0.28643387642E+02  0.12500000000E+03  0.80419002446E+02 0.  1.
</event>
<event>
 4    1  0.1599584E-001  0.1250000E+03  0.7546771E-02  0.1126479E+00
        -11   -1    0    0    0    0  0.00000000000E+00  0.00000000000E+00  0.12500000000E+03  0.12500000000E+03  0.00000000000E+00 0.  1.
         11   -1    0    0    0    0 -0.00000000000E+00 -0.00000000000E+00 -0.12500000000E+03  0.12500000000E+03  0.00000000000E+00 0. -1.
         24    1    1    2    0    0 -0.29371747827E+02 -0.19749246881E+02  0.88910357793E+02  0.12500000000E+03  0.80419002446E+02 0.  1.
        -24    1    1    2    0    0  0.29371747827E+02  0.19749246881E+02 -0.88910357793E+02  0.12500000000E+03  0.80419002446E+02 0. -1.
</event>
<event>
 4    1  0.1599584E-001  0.1250000E+03  0.7546771E-02  0.1126479E+00
        -11   -1    0    0    0    0  0.00000000000E+00  0.00000000000E+00  0.12500000000E+03  0.12500000000E+03  0.00000000000E+00 0.  1.
         11   -1    0    0    0    0 -0.00000000000E+00 -0.00000000000E+00 -0.12500000000E+03  0.12500000000E+03  0.00000000000E+00 0. -1.
         24    1    1    2    0    0  0.87164113240E+02  0.28420522591E+02  0.27431283316E+02  0.12500000000E+03  0.80419002446E+02 0.  1.
        -24    1    1    2    0    0 -0.87164113240E+02 -0.28420522591E+02 -0.27431283316E+02  0.12500000000E+03  0.80419002446E+02 0. -1.
</event>
<event>
 4    1  0.1599584E-001  0.1250000E+03  0.7546771E-02  0.1126479E+00
        -11   -1    0    0    0    0  0.00000000000E+00  0.00000000000E+00  0.12500000000E+03  0.12500000000E+03  0.00000000000E+00 0.  1.
         11   -1    0    0    0    0 -0.00000000000E+00 -0.00000000000E+00 -0.12500000000E+03  0.12500000000E+03  0.00000000000E+00 0. -1.
         24    1    1    2    0    0 -0.11486130286E+02 -0.85104606996E+02  0.42226280025E+02  0.12500000000E+03  0.80419002446E+02 0.  1.
        -24    1    1    2    0    0  0.11486130286E+02  0.85104606996E+02 -0.42226280025E+02  0.12500000000E+03  0.80419002446E+02 0. -1.
</event>
<event>
 4    1  0.1599584E-001  0.1250000E+03  0.7546771E-02  0.1126479E+00
        -11   -1    0    0    0    0  0.00000000000E+00  0.00000000000E+00  0.12500000000E+03  0.12500000000E+03  0.00000000000E+00 0.  1.
         11   -1    0    0    0    0 -0.00000000000E+00 -0.00000000000E+00 -0.12500000000E+03  0.12500000000E+03  0.00000000000E+00 0. -1.
         24    1    1    2    0    0 -0.16008325354E+02  0.66009970360E+02 -0.67410691868E+02  0.12500000000E+03  0.80419002446E+02 0. -1.
        -24    1    1    2    0    0  0.16008325354E+02 -0.66009970360E+02  0.67410691868E+02  0.12500000000E+03  0.80419002446E+02 0.  1.
</event>
<event>
 4    1  0.1599584E-001  0.1250000E+03  0.7546771E-02  0.1126479E+00
        -11   -1    0    0    0    0  0.00000000000E+00  0.00000000000E+00  0.12500000000E+03  0.12500000000E+03  0.00000000000E+00 0.  1.
         11   -1    0    0    0    0 -0.00000000000E+00 -0.00000000000E+00 -0.12500000000E+03  0.12500000000E+03  0.00000000000E+00 0. -1.
         24    1    1    2    0    0  0.17938458657E+02 -0.27134645163E+02  0.89998370977E+02  0.12500000000E+03  0.80419002446E+02 0.  1.
        -24    1    1    2    0    0 -0.17938458657E+02  0.27134645163E+02 -0.89998370977E+02  0.12500000000E+03  0.80419002446E+02 0. -1.
</event>
<event>
 4    1  0.1599584E-001  0.1250000E+03  0.7546771E-02  0.1126479E+00
        -11   -1    0    0    0    0  0.00000000000E+00  0.00000000000E+00  0.12500000000E+03  0.12500000000E+03  0.00000000000E+00 0.  1.
         11   -1    0    0    0    0 -0.00000000000E+00 -0.00000000000E+00 -0.12500000000E+03  0.12500000000E+03  0.00000000000E+00 0. -1.
         24    1    1    2    0    0  0.20406106985E+02 -0.78764401073E+02 -0.50374040607E+02  0.12500000000E+03  0.80419002446E+02 0.  0.
        -24    1    1    2    0    0 -0.20406106985E+02  0.78764401073E+02  0.50374040607E+02  0.12500000000E+03  0.80419002446E+02 0.  0.
</event>
<event>
 4    1  0.1599584E-001  0.1250000E+03  0.7546771E-02  0.1126479E+00
        -11   -1    0    0    0    0  0.00000000000E+00  0.00000000000E+00  0.12500000000E+03  0.12500000000E+03  0.00000000000E+00 0.  1.
         11   -1    0    0    0    0 -0.00000000000E+00 -0.00000000000E+00 -0.12500000000E+03  0.12500000000E+03  0.00000000000E+00 0. -1.
         24    1    1    2    0    0  0.20926008527E+02  0.16869574354E+02  0.91843909291E+02  0.12500000000E+03  0.80419002446E+02 0.  1.
        -24    1    1    2    0    0 -0.20926008527E+02 -0.16869574354E+02 -0.91843909291E+02  0.12500000000E+03  0.80419002446E+02 0. -1.
</event>
<event>
 4    1  0.1599584E-001  0.1250000E+03  0.7546771E-02  0.1126479E+00
        -11   -1    0    0    0    0  0.00000000000E+00  0.00000000000E+00  0.12500000000E+03  0.12500000000E+03  0.00000000000E+00 0.  1.
         11   -1    0    0    0    0 -0.00000000000E+00 -0.00000000000E+00 -0.12500000000E+03  0.12500000000E+03  0.00000000000E+00 0. -1.
         24    1    1    2    0    0  0.77067627313E+02 -0.17885029140E+02  0.53837631808E+02  0.12500000000E+03  0.80419002446E+02 0.  1.
        -24    1    1    2    0    0 -0.77067627313E+02  0.17885029140E+02 -0.53837631808E+02  0.12500000000E+03  0.80419002446E+02 0. -1.
</event>
<event>
 4    1  0.1599584E-001  0.1250000E+03  0.7546771E-02  0.1126479E+00
        -11   -1    0    0    0    0  0.00000000000E+00  0.00000000000E+00  0.12500000000E+03  0.12500000000E+03  0.00000000000E+00 0.  1.
         11   -1    0    0    0    0 -0.00000000000E+00 -0.00000000000E+00 -0.12500000000E+03  0.12500000000E+03  0.00000000000E+00 0. -1.
         24    1    1    2    0    0 -0.79265788363E+01 -0.10697447114E+02  0.94765595122E+02  0.12500000000E+03  0.80419002446E+02 0.  1.
        -24    1    1    2    0    0  0.79265788363E+01  0.10697447114E+02 -0.94765595122E+02  0.12500000000E+03  0.80419002446E+02 0. -1.
</event>
<event>
 4    1  0.1599584E-001  0.1250000E+03  0.7546771E-02  0.1126479E+00
        -11   -1    0    0    0    0  0.00000000000E+00  0.00000000000E+00  0.12500000000E+03  0.12500000000E+03  0.00000000000E+00 0.  1.
         11   -1    0    0    0    0 -0.00000000000E+00 -0.00000000000E+00 -0.12500000000E+03  0.12500000000E+03  0.00000000000E+00 0. -1.
         24    1    1    2    0    0  0.36584322983E+02 -0.51021283107E+01  0.88279893771E+02  0.12500000000E+03  0.80419002446E+02 0.  1.
        -24    1    1    2    0    0 -0.36584322983E+02  0.51021283107E+01 -0.88279893771E+02  0.12500000000E+03  0.80419002446E+02 0. -1.
</event>
<event>
 4    1  0.1599584E-001  0.1250000E+03  0.7546771E-02  0.1126479E+00
        -11   -1    0    0    0    0  0.00000000000E+00  0.00000000000E+00  0.12500000000E+03  0.12500000000E+03  0.00000000000E+00 0.  1.
         11   -1    0    0    0    0 -0.00000000000E+00 -0.00000000000E+00 -0.12500000000E+03  0.12500000000E+03  0.00000000000E+00 0. -1.
         24    1    1    2    0    0 -0.54455912263E+01  0.34915416851E+01  0.95477425177E+02  0.12500000000E+03  0.80419002446E+02 0.  0.
        -24    1    1    2    0    0  0.54455912263E+01 -0.34915416851E+01 -0.95477425177E+02  0.12500000000E+03  0.80419002446E+02 0. -1.
</event>
<event>
 4    1  0.1599584E-001  0.1250000E+03  0.7546771E-02  0.1126479E+00
        -11   -1    0    0    0    0  0.00000000000E+00  0.00000000000E+00  0.12500000000E+03  0.12500000000E+03  0.00000000000E+00 0.  1.
         11   -1    0    0    0    0 -0.00000000000E+00 -0.00000000000E+00 -0.12500000000E+03  0.12500000000E+03  0.00000000000E+00 0. -1.
         24    1    1    2    0    0 -0.25062089639E+02 -0.52652483060E+01  0.92206034883E+02  0.12500000000E+03  0.80419002446E+02 0.  0.
        -24    1    1    2    0    0  0.25062089639E+02  0.52652483060E+01 -0.92206034883E+02  0.12500000000E+03  0.80419002446E+02 0. -1.
</event>
<event>
 4    1  0.1599584E-001  0.1250000E+03  0.7546771E-02  0.1126479E+00
        -11   -1    0    0    0    0  0.00000000000E+00  0.00000000000E+00  0.12500000000E+03  0.12500000000E+03  0.00000000000E+00 0.  1.
         11   -1    0    0    0    0 -0.00000000000E+00 -0.00000000000E+00 -0.12500000000E+03  0.12500000000E+03  0.00000000000E+00 0. -1.
         24    1    1    2    0    0  0.37567696910E+02  0.54260598470E+02  0.69298193687E+02  0.12500000000E+03  0.80419002446E+02 0.  1.
        -24    1    1    2    0    0 -0.37567696910E+02 -0.54260598470E+02 -0.69298193687E+02  0.12500000000E+03  0.80419002446E+02 0. -1.
</event>
<event>
 4    1  0.1599584E-001  0.1250000E+03  0.7546771E-02  0.1126479E+00
        -11   -1    0    0    0    0  0.00000000000E+00  0.00000000000E+00  0.12500000000E+03  0.12500000000E+03  0.00000000000E+00 0.  1.
         11   -1    0    0    0    0 -0.00000000000E+00 -0.00000000000E+00 -0.12500000000E+03  0.12500000000E+03  0.00000000000E+00 0. -1.
         24    1    1    2    0    0 -0.42614587686E+02 -0.23833508240E+01  0.85651039695E+02  0.12500000000E+03  0.80419002446E+02 0.  1.
        -24    1    1    2    0    0  0.42614587686E+02  0.23833508240E+01 -0.85651039695E+02  0.12500000000E+03  0.80419002446E+02 0. -1.
</event>
<event>
 4    1  0.1599584E-001  0.1250000E+03  0.7546771E-02  0.1126479E+00
        -11   -1    0    0    0    0  0.00000000000E+00  0.00000000000E+00  0.12500000000E+03  0.12500000000E+03  0.00000000000E+00 0.  1.
         11   -1    0    0    0    0 -0.00000000000E+00 -0.00000000000E+00 -0.12500000000E+03  0.12500000000E+03  0.00000000000E+00 0. -1.
         24    1    1    2    0    0  0.11056837684E+02  0.14337651878E+02  0.93967878154E+02  0.12500000000E+03  0.80419002446E+02 0.  0.
        -24    1    1    2    0    0 -0.11056837684E+02 -0.14337651878E+02 -0.93967878154E+02  0.12500000000E+03  0.80419002446E+02 0.  0.
</event>
<event>
 4    1  0.1599584E-001  0.1250000E+03  0.7546771E-02  0.1126479E+00
        -11   -1    0    0    0    0  0.00000000000E+00  0.00000000000E+00  0.12500000000E+03  0.12500000000E+03  0.00000000000E+00 0.  1.
         11   -1    0    0    0    0 -0.00000000000E+00 -0.00000000000E+00 -0.12500000000E+03  0.12500000000E+03  0.00000000000E+00 0. -1.
         24    1    1    2    0    0 -0.59889421684E+02  0.70238124402E+02  0.25251675123E+02  0.12500000000E+03  0.80419002446E+02 0.  1.
        -24    1    1    2    0    0  0.59889421684E+02 -0.70238124402E+02 -0.25251675123E+02  0.12500000000E+03  0.80419002446E+02 0. -1.
</event>
<event>
 4    1  0.1599584E-001  0.1250000E+03  0.7546771E-02  0.1126479E+00
        -11   -1    0    0    0    0  0.00000000000E+00  0.00000000000E+00  0.12500000000E+03  0.12500000000E+03  0.00000000000E+00 0.  1.
         11   -1    0    0    0    0 -0.00000000000E+00 -0.00000000000E+00 -0.12500000000E+03  0.12500000000E+03  0.00000000000E+00 0. -1.
         24    1    1    2    0    0 -0.21505717521E+02  0.64202283234E+01  0.93027247771E+02  0.12500000000E+03  0.80419002446E+02 0.  1.
        -24    1    1    2    0    0  0.21505717521E+02 -0.64202283234E+01 -0.93027247771E+02  0.12500000000E+03  0.80419002446E+02 0. -1.
</event>
<event>
 4    1  0.1599584E-001  0.1250000E+03  0.7546771E-02  0.1126479E+00
        -11   -1    0    0    0    0  0.00000000000E+00  0.00000000000E+00  0.12500000000E+03  0.12500000000E+03  0.00000000000E+00 0.  1.
         11   -1    0    0    0    0 -0.00000000000E+00 -0.00000000000E+00 -0.12500000000E+03  0.12500000000E+03  0.00000000000E+00 0. -1.
         24    1    1    2    0    0  0.11987903482E+01 -0.33181419074E+02  0.89751548040E+02  0.12500000000E+03  0.80419002446E+02 0.  1.
        -24    1    1    2    0    0 -0.11987903482E+01  0.33181419074E+02 -0.89751548040E+02  0.12500000000E+03  0.80419002446E+02 0. -1.
</event>
<event>
 4    1  0.1599584E-001  0.1250000E+03  0.7546771E-02  0.1126479E+00
        -11   -1    0    0    0    0  0.00000000000E+00  0.00000000000E+00  0.12500000000E+03  0.12500000000E+03  0.00000000000E+00 0.  1.
         11   -1    0    0    0    0 -0.00000000000E+00 -0.00000000000E+00 -0.12500000000E+03  0.12500000000E+03  0.00000000000E+00 0. -1.
         24    1    1    2    0    0  0.10800626417E+02  0.52496479956E+02  0.79279569291E+02  0.12500000000E+03  0.80419002446E+02 0.  1.
        -24    1    1    2    0    0 -0.10800626417E+02 -0.52496479956E+02 -0.79279569291E+02  0.12500000000E+03  0.80419002446E+02 0. -1.
</event>
<event>
 4    1  0.1599584E-001  0.1250000E+03  0.7546771E-02  0.1126479E+00
        -11   -1    0    0    0    0  0.00000000000E+00  0.00000000000E+00  0.12500000000E+03  0.12500000000E+03  0.00000000000E+00 0.  1.
         11   -1    0    0    0    0 -0.00000000000E+00 -0.00000000000E+00 -0.12500000000E+03  0.12500000000E+03  0.00000000000E+00 0. -1.
         24    1    1    2    0    0 -0.69882564677E+02 -0.56190754029E+02 -0.33418712745E+02  0.12500000000E+03  0.80419002446E+02 0. -1.
        -24    1    1    2    0    0  0.69882564677E+02  0.56190754029E+02  0.33418712745E+02  0.12500000000E+03  0.80419002446E+02 0.  1.
</event>
<event>
 4    1  0.1599584E-001  0.1250000E+03  0.7546771E-02  0.1126479E+00
        -11   -1    0    0    0    0  0.00000000000E+00  0.00000000000E+00  0.12500000000E+03  0.12500000000E+03  0.00000000000E+00 0.  1.
         11   -1    0    0    0    0 -0.00000000000E+00 -0.00000000000E+00 -0.12500000000E+03  0.12500000000E+03  0.00000000000E+00 0. -1.
         24    1    1    2    0    0  0.32081506739E+02 -0.21236705961E+02  0.87621705593E+02  0.12500000000E+03  0.80419002446E+02 0.  1.
        -24    1    1    2    0    0 -0.32081506739E+02  0.21236705961E+02 -0.87621705593E+02  0.12500000000E+03  0.80419002446E+02 0. -1.
</event>
<event>
 4    1  0.1599584E-001  0.1250000E+03  0.7546771E-02  0.1126479E+00
        -11   -1    0    0    0    0  0.00000000000E+00  0.00000000000E+00  0.12500000000E+03  0.12500000000E+03  0.00000000000E+00 0.  1.
         11   -1    0    0    0    0 -0.00000000000E+00 -0.00000000000E+00 -0.12500000000E+03  0.12500000000E+03  0.00000000000E+00 0. -1.
         24    1    1    2    0    0  0.52214500683E+00 -0.22307049463E+01  0.95668883999E+02  0.12500000000E+03  0.80419002446E+02 0.  1.
        -24    1    1    2    0    0 -0.52214500683E+00  0.22307049463E+01 -0.95668883999E+02  0.12500000000E+03  0.80419002446E+02 0.  0.
</event>
<event>
 4    1  0.1599584E-001  0.1250000E+03  0.7546771E-02  0.1126479E+00
        -11   -1    0    0    0    0  0.00000000000E+00  0.00000000000E+00  0.12500000000E+03  0.12500000000E+03  0.00000000000E+00 0.  1.
         11   -1    0    0    0    0 -0.00000000000E+00 -0.00000000000E+00 -0.12500000000E+03  0.12500000000E+03  0.00000000000E+00 0. -1.
         24    1    1    2    0    0 -0.38262286218E+02  0.71788474110E+01  0.87419938509E+02  0.12500000000E+03  0.80419002446E+02 0.  1.
        -24    1    1    2    0    0  0.38262286218E+02 -0.71788474110E+01 -0.87419938509E+02  0.12500000000E+03  0.80419002446E+02 0. -1.
</event>
<event>
 4    1  0.1599584E-001  0.1250000E+03  0.7546771E-02  0.1126479E+00
        -11   -1    0    0    0    0  0.00000000000E+00  0.00000000000E+00  0.12500000000E+03  0.12500000000E+03  0.00000000000E+00 0.  1.
         11   -1    0    0    0    0 -0.00000000000E+00 -0.00000000000E+00 -0.12500000000E+03  0.12500000000E+03  0.00000000000E+00 0. -1.
         24    1    1    2    0    0  0.18554462922E+02  0.35445320158E+02  0.86931842441E+02  0.12500000000E+03  0.80419002446E+02 0.  1.
        -24    1    1    2    0    0 -0.18554462922E+02 -0.35445320158E+02 -0.86931842441E+02  0.12500000000E+03  0.80419002446E+02 0. -1.
</event>
<event>
 4    1  0.1599584E-001  0.1250000E+03  0.7546771E-02  0.1126479E+00
        -11   -1    0    0    0    0  0.00000000000E+00  0.00000000000E+00  0.12500000000E+03  0.12500000000E+03  0.00000000000E+00 0.  1.
         11   -1    0    0    0    0 -0.00000000000E+00 -0.00000000000E+00 -0.12500000000E+03  0.12500000000E+03  0.00000000000E+00 0. -1.
         24    1    1    2    0    0  0.13466520457E+02  0.23572979136E+02  0.91764652928E+02  0.12500000000E+03  0.80419002446E+02 0.  1.
        -24    1    1    2    0    0 -0.13466520457E+02 -0.23572979136E+02 -0.91764652928E+02  0.12500000000E+03  0.80419002446E+02 0. -1.
</event>
<event>
 4    1  0.1599584E-001  0.1250000E+03  0.7546771E-02  0.1126479E+00
        -11   -1    0    0    0    0  0.00000000000E+00  0.00000000000E+00  0.12500000000E+03  0.12500000000E+03  0.00000000000E+00 0.  1.
         11   -1    0    0    0    0 -0.00000000000E+00 -0.00000000000E+00 -0.12500000000E+03  0.12500000000E+03  0.00000000000E+00 0. -1.
         24    1    1    2    0    0 -0.16796389960E+02 -0.85641372882E+01  0.93820684726E+02  0.12500000000E+03  0.80419002446E+02 0.  0.
        -24    1    1    2    0    0  0.16796389960E+02  0.85641372882E+01 -0.93820684726E+02  0.12500000000E+03  0.80419002446E+02 0.  0.
</event>
<event>
 4    1  0.1599584E-001  0.1250000E+03  0.7546771E-02  0.1126479E+00
        -11   -1    0    0    0    0  0.00000000000E+00  0.00000000000E+00  0.12500000000E+03  0.12500000000E+03  0.00000000000E+00 0.  1.
         11   -1    0    0    0    0 -0.00000000000E+00 -0.00000000000E+00 -0.12500000000E+03  0.12500000000E+03  0.00000000000E+00 0. -1.
         24    1    1    2    0    0 -0.30678200095E+02  0.27824572063E+02  0.86269492140E+02  0.12500000000E+03  0.80419002446E+02 0.  1.
        -24    1    1    2    0    0  0.30678200095E+02 -0.27824572063E+02 -0.86269492140E+02  0.12500000000E+03  0.80419002446E+02 0. -1.
</event>
<event>
 4    1  0.1599584E-001  0.1250000E+03  0.7546771E-02  0.1126479E+00
        -11   -1    0    0    0    0  0.00000000000E+00  0.00000000000E+00  0.12500000000E+03  0.12500000000E+03  0.00000000000E+00 0.  1.
         11   -1    0    0    0    0 -0.00000000000E+00 -0.00000000000E+00 -0.12500000000E+03  0.12500000000E+03  0.00000000000E+00 0. -1.
         24    1    1    2    0    0 -0.23432211238E+02  0.15126934992E+02  0.91541746541E+02  0.12500000000E+03  0.80419002446E+02 0.  1.
        -24    1    1    2    0    0  0.23432211238E+02 -0.15126934992E+02 -0.91541746541E+02  0.12500000000E+03  0.80419002446E+02 0. -1.
</event>
<event>
 4    1  0.1599584E-001  0.1250000E+03  0.7546771E-02  0.1126479E+00
        -11   -1    0    0    0    0  0.00000000000E+00  0.00000000000E+00  0.12500000000E+03  0.12500000000E+03  0.00000000000E+00 0.  1.
         11   -1    0    0    0    0 -0.00000000000E+00 -0.00000000000E+00 -0.12500000000E+03  0.12500000000E+03  0.00000000000E+00 0. -1.
         24    1    1    2    0    0 -0.61903703326E+02  0.24391638273E+02  0.68780546250E+02  0.12500000000E+03  0.80419002446E+02 0. -1.
        -24    1    1    2    0    0  0.61903703326E+02 -0.24391638273E+02 -0.68780546250E+02  0.12500000000E+03  0.80419002446E+02 0. -1.
</event>
<event>
 4    1  0.1599584E-001  0.1250000E+03  0.7546771E-02  0.1126479E+00
        -11   -1    0    0    0    0  0.00000000000E+00  0.00000000000E+00  0.12500000000E+03  0.12500000000E+03  0.00000000000E+00 0.  1.
         11   -1    0    0    0    0 -0.00000000000E+00 -0.00000000000E+00 -0.12500000000E+03  0.12500000000E+03  0.00000000000E+00 0. -1.
         24    1    1    2    0    0  0.98259248211E+01 -0.27962306158E+02  0.90990904388E+02  0.12500000000E+03  0.80419002446E+02 0.  0.
        -24    1    1    2    0    0 -0.98259248211E+01  0.27962306158E+02 -0.90990904388E+02  0.12500000000E+03  0.80419002446E+02 0. -1.
</event>
<event>
 4    1  0.1599584E-001  0.1250000E+03  0.7546771E-02  0.1126479E+00
        -11   -1    0    0    0    0  0.00000000000E+00  0.00000000000E+00  0.12500000000E+03  0.12500000000E+03  0.00000000000E+00 0.  1.
         11   -1    0    0    0    0 -0.00000000000E+00 -0.00000000000E+00 -0.12500000000E+03  0.12500000000E+03  0.00000000000E+00 0. -1.
         24    1    1    2    0    0  0.37552038070E+02 -0.61724247225E+01  0.87803927335E+02  0.12500000000E+03  0.80419002446E+02 0.  1.
        -24    1    1    2    0    0 -0.37552038070E+02  0.61724247225E+01 -0.87803927335E+02  0.12500000000E+03  0.80419002446E+02 0. -1.
</event>
<event>
 4    1  0.1599584E-001  0.1250000E+03  0.7546771E-02  0.1126479E+00
        -11   -1    0    0    0    0  0.00000000000E+00  0.00000000000E+00  0.12500000000E+03  0.12500000000E+03  0.00000000000E+00 0.  1.
         11   -1    0    0    0    0 -0.00000000000E+00 -0.00000000000E+00 -0.12500000000E+03  0.12500000000E+03  0.00000000000E+00 0. -1.
         24    1    1    2    0    0 -0.46477765249E+02 -0.54726517991E+01  0.83472459323E+02  0.12500000000E+03  0.80419002446E+02 0.  1.
        -24    1    1    2    0    0  0.46477765249E+02  0.54726517991E+01 -0.83472459323E+02  0.12500000000E+03  0.80419002446E+02 0. -1.
</event>
<event>
 4    1  0.1599584E-001  0.1250000E+03  0.7546771E-02  0.1126479E+00
        -11   -1    0    0    0    0  0.00000000000E+00  0.00000000000E+00  0.12500000000E+03  0.12500000000E+03  0.00000000000E+00 0.  1.
         11   -1    0    0    0    0 -0.00000000000E+00 -0.00000000000E+00 -0.12500000000E+03  0.12500000000E+03  0.00000000000E+00 0. -1.
         24    1    1    2    0    0 -0.86177641364E+01 -0.30440526502E+02  0.90315516570E+02  0.12500000000E+03  0.80419002446E+02 0.  1.
        -24    1    1    2    0    0  0.86177641364E+01  0.30440526502E+02 -0.90315516570E+02  0.12500000000E+03  0.80419002446E+02 0.  0.
</event>
<event>
 4    1  0.1599584E-001  0.1250000E+03  0.7546771E-02  0.1126479E+00
        -11   -1    0    0    0    0  0.00000000000E+00  0.00000000000E+00  0.12500000000E+03  0.12500000000E+03  0.00000000000E+00 0.  1.
         11   -1    0    0    0    0 -0.00000000000E+00 -0.00000000000E+00 -0.12500000000E+03  0.12500000000E+03  0.00000000000E+00 0. -1.
         24    1    1    2    0    0  0.31439247636E+02 -0.38971572680E+02  0.81551053191E+02  0.12500000000E+03  0.80419002446E+02 0.  1.
        -24    1    1    2    0    0 -0.31439247636E+02  0.38971572680E+02 -0.81551053191E+02  0.12500000000E+03  0.80419002446E+02 0. -1.
</event>
<event>
 4    1  0.1599584E-001  0.1250000E+03  0.7546771E-02  0.1126479E+00
        -11   -1    0    0    0    0  0.00000000000E+00  0.00000000000E+00  0.12500000000E+03  0.12500000000E+03  0.00000000000E+00 0.  1.
         11   -1    0    0    0    0 -0.00000000000E+00 -0.00000000000E+00 -0.12500000000E+03  0.12500000000E+03  0.00000000000E+00 0. -1.
         24    1    1    2    0    0  0.12908552542E+02 -0.86663653870E+02  0.38478103055E+02  0.12500000000E+03  0.80419002446E+02 0.  1.
        -24    1    1    2    0    0 -0.12908552542E+02  0.86663653870E+02 -0.38478103055E+02  0.12500000000E+03  0.80419002446E+02 0. -1.
</event>
<event>
 4    1  0.1599584E-001  0.1250000E+03  0.7546771E-02  0.1126479E+00
        -11   -1    0    0    0    0  0.00000000000E+00  0.00000000000E+00  0.12500000000E+03  0.12500000000E+03  0.00000000000E+00 0.  1.
         11   -1    0    0    0    0 -0.00000000000E+00 -0.00000000000E+00 -0.12500000000E+03  0.12500000000E+03  0.00000000000E+00 0. -1.
         24    1    1    2    0    0  0.24499623978E+02  0.15933010205E+02  0.91124594136E+02  0.12500000000E+03  0.80419002446E+02 0.  1.
        -24    1    1    2    0    0 -0.24499623978E+02 -0.15933010205E+02 -0.91124594136E+02  0.12500000000E+03  0.80419002446E+02 0. -1.
</event>
<event>
 4    1  0.1599584E-001  0.1250000E+03  0.7546771E-02  0.1126479E+00
        -11   -1    0    0    0    0  0.00000000000E+00  0.00000000000E+00  0.12500000000E+03  0.12500000000E+03  0.00000000000E+00 0.  1.
         11   -1    0    0    0    0 -0.00000000000E+00 -0.00000000000E+00 -0.12500000000E+03  0.12500000000E+03  0.00000000000E+00 0. -1.
         24    1    1    2    0    0  0.27407799203E+02 -0.81874474536E+02  0.41269443998E+02  0.12500000000E+03  0.80419002446E+02 0.  1.
        -24    1    1    2    0    0 -0.27407799203E+02  0.81874474536E+02 -0.41269443998E+02  0.12500000000E+03  0.80419002446E+02 0. -1.
</event>
<event>
 4    1  0.1599584E-001  0.1250000E+03  0.7546771E-02  0.1126479E+00
        -11   -1    0    0    0    0  0.00000000000E+00  0.00000000000E+00  0.12500000000E+03  0.12500000000E+03  0.00000000000E+00 0.  1.
         11   -1    0    0    0    0 -0.00000000000E+00 -0.00000000000E+00 -0.12500000000E+03  0.12500000000E+03  0.00000000000E+00 0. -1.
         24    1    1    2    0    0 -0.24062475129E+02  0.35300567218E+02  0.85630901492E+02  0.12500000000E+03  0.80419002446E+02 0.  1.
        -24    1    1    2    0    0  0.24062475129E+02 -0.35300567218E+02 -0.85630901492E+02  0.12500000000E+03  0.80419002446E+02 0. -1.
</event>
<event>
 4    1  0.1599584E-001  0.1250000E+03  0.7546771E-02  0.1126479E+00
        -11   -1    0    0    0    0  0.00000000000E+00  0.00000000000E+00  0.12500000000E+03  0.12500000000E+03  0.00000000000E+00 0.  1.
         11   -1    0    0    0    0 -0.00000000000E+00 -0.00000000000E+00 -0.12500000000E+03  0.12500000000E+03  0.00000000000E+00 0. -1.
         24    1    1    2    0    0  0.42595780184E+02  0.31049604619E+02  0.79870555332E+02  0.12500000000E+03  0.80419002446E+02 0.  1.
        -24    1    1    2    0    0 -0.42595780184E+02 -0.31049604619E+02 -0.79870555332E+02  0.12500000000E+03  0.80419002446E+02 0. -1.
</event>
<event>
 4    1  0.1599584E-001  0.1250000E+03  0.7546771E-02  0.1126479E+00
        -11   -1    0    0    0    0  0.00000000000E+00  0.00000000000E+00  0.12500000000E+03  0.12500000000E+03  0.00000000000E+00 0.  1.
         11   -1    0    0    0    0 -0.00000000000E+00 -0.00000000000E+00 -0.12500000000E+03  0.12500000000E+03  0.00000000000E+00 0. -1.
         24    1    1    2    0    0 -0.50676017378E+02 -0.42854927580E+01  0.81063924530E+02  0.12500000000E+03  0.80419002446E+02 0. -1.
        -24    1    1    2    0    0  0.50676017378E+02  0.42854927580E+01 -0.81063924530E+02  0.12500000000E+03  0.80419002446E+02 0. -1.
</event>
<event>
 4    1  0.1599584E-001  0.1250000E+03  0.7546771E-02  0.1126479E+00
        -11   -1    0    0    0    0  0.00000000000E+00  0.00000000000E+00  0.12500000000E+03  0.12500000000E+03  0.00000000000E+00 0.  1.
         11   -1    0    0    0    0 -0.00000000000E+00 -0.00000000000E+00 -0.12500000000E+03  0.12500000000E+03  0.00000000000E+00 0. -1.
         24    1    1    2    0    0 -0.11811086164E+02 -0.95442604203E+01  0.94483804868E+02  0.12500000000E+03  0.80419002446E+02 0.  0.
        -24    1    1    2    0    0  0.11811086164E+02  0.95442604203E+01 -0.94483804868E+02  0.12500000000E+03  0.80419002446E+02 0. -1.
</event>
<event>
 4    1  0.1599584E-001  0.1250000E+03  0.7546771E-02  0.1126479E+00
        -11   -1    0    0    0    0  0.00000000000E+00  0.00000000000E+00  0.12500000000E+03  0.12500000000E+03  0.00000000000E+00 0.  1.
         11   -1    0    0    0    0 -0.00000000000E+00 -0.00000000000E+00 -0.12500000000E+03  0.12500000000E+03  0.00000000000E+00 0. -1.
         24    1    1    2    0    0  0.69475013462E+01  0.16617925944E+02  0.93985960696E+02  0.12500000000E+03  0.80419002446E+02 0.  1.
        -24    1    1    2    0    0 -0.69475013462E+01 -0.16617925944E+02 -0.93985960696E+02  0.12500000000E+03  0.80419002446E+02 0.  0.
</event>
<event>
 4    1  0.1599584E-001  0.1250000E+03  0.7546771E-02  0.1126479E+00
        -11   -1    0    0    0    0  0.00000000000E+00  0.00000000000E+00  0.12500000000E+03  0.12500000000E+03  0.00000000000E+00 0.  1.
         11   -1    0    0    0    0 -0.00000000000E+00 -0.00000000000E+00 -0.12500000000E+03  0.12500000000E+03  0.00000000000E+00 0. -1.
         24    1    1    2    0    0 -0.52720853742E+02  0.79784123054E+02  0.35762179474E+01  0.12500000000E+03  0.80419002446E+02 0. -1.
        -24    1    1    2    0    0  0.52720853742E+02 -0.79784123054E+02 -0.35762179474E+01  0.12500000000E+03  0.80419002446E+02 0.  1.
</event>
<event>
 4    1  0.1599584E-001  0.1250000E+03  0.7546771E-02  0.1126479E+00
        -11   -1    0    0    0    0  0.00000000000E+00  0.00000000000E+00  0.12500000000E+03  0.12500000000E+03  0.00000000000E+00 0.  1.
         11   -1    0    0    0    0 -0.00000000000E+00 -0.00000000000E+00 -0.12500000000E+03  0.12500000000E+03  0.00000000000E+00 0. -1.
         24    1    1    2    0    0  0.36191797761E+02 -0.87126537727E+02 -0.16028232720E+02  0.12500000000E+03  0.80419002446E+02 0.  1.
        -24    1    1    2    0    0 -0.36191797761E+02  0.87126537727E+02  0.16028232720E+02  0.12500000000E+03  0.80419002446E+02 0.  1.
</event>
<event>
 4    1  0.1599584E-001  0.1250000E+03  0.7546771E-02  0.1126479E+00
        -11   -1    0    0    0    0  0.00000000000E+00  0.00000000000E+00  0.12500000000E+03  0.12500000000E+03  0.00000000000E+00 0.  1.
         11   -1    0    0    0    0 -0.00000000000E+00 -0.00000000000E+00 -0.12500000000E+03  0.12500000000E+03  0.00000000000E+00 0. -1.
         24    1    1    2    0    0  0.14666423845E+02 -0.51837824636E+02  0.79091845308E+02  0.12500000000E+03  0.80419002446E+02 0.  1.
        -24    1    1    2    0    0 -0.14666423845E+02  0.51837824636E+02 -0.79091845308E+02  0.12500000000E+03  0.80419002446E+02 0. -1.
</event>
<event>
 4    1  0.1599584E-001  0.1250000E+03  0.7546771E-02  0.1126479E+00
        -11   -1    0    0    0    0  0.00000000000E+00  0.00000000000E+00  0.12500000000E+03  0.12500000000E+03  0.00000000000E+00 0.  1.
         11   -1    0    0    0    0 -0.00000000000E+00 -0.00000000000E+00 -0.12500000000E+03  0.12500000000E+03  0.00000000000E+00 0. -1.
         24    1    1    2    0    0 -0.55868670985E+01  0.30284126269E+02  0.90605974736E+02  0.12500000000E+03  0.80419002446E+02 0.  1.
        -24    1    1    2    0    0  0.55868670985E+01 -0.30284126269E+02 -0.90605974736E+02  0.12500000000E+03  0.80419002446E+02 0. -1.
</event>
<event>
 4    1  0.1599584E-001  0.1250000E+03  0.7546771E-02  0.1126479E+00
        -11   -1    0    0    0    0  0.00000000000E+00  0.00000000000E+00  0.12500000000E+03  0.12500000000E+03  0.00000000000E+00 0.  1.
         11   -1    0    0    0    0 -0.00000000000E+00 -0.00000000000E+00 -0.12500000000E+03  0.12500000000E+03  0.00000000000E+00 0. -1.
         24    1    1    2    0    0  0.40816880795E+02  0.49368322616E+02  0.71095253075E+02  0.12500000000E+03  0.80419002446E+02 0.  1.
        -24    1    1    2    0    0 -0.40816880795E+02 -0.49368322616E+02 -0.71095253075E+02  0.12500000000E+03  0.80419002446E+02 0. -1.
</event>
<event>
 4    1  0.1599584E-001  0.1250000E+03  0.7546771E-02  0.1126479E+00
        -11   -1    0    0    0    0  0.00000000000E+00  0.00000000000E+00  0.12500000000E+03  0.12500000000E+03  0.00000000000E+00 0.  1.
         11   -1    0    0    0    0 -0.00000000000E+00 -0.00000000000E+00 -0.12500000000E+03  0.12500000000E+03  0.00000000000E+00 0. -1.
         24    1    1    2    0    0 -0.21807510028E+02 -0.39718687565E+01  0.93093720575E+02  0.12500000000E+03  0.80419002446E+02 0.  1.
        -24    1    1    2    0    0  0.21807510028E+02  0.39718687565E+01 -0.93093720575E+02  0.12500000000E+03  0.80419002446E+02 0. -1.
</event>
<event>
 4    1  0.1599584E-001  0.1250000E+03  0.7546771E-02  0.1126479E+00
        -11   -1    0    0    0    0  0.00000000000E+00  0.00000000000E+00  0.12500000000E+03  0.12500000000E+03  0.00000000000E+00 0.  1.
         11   -1    0    0    0    0 -0.00000000000E+00 -0.00000000000E+00 -0.12500000000E+03  0.12500000000E+03  0.00000000000E+00 0. -1.
         24    1    1    2    0    0  0.15067618919E+02  0.50661806283E+02  0.79775511843E+02  0.12500000000E+03  0.80419002446E+02 0.  1.
        -24    1    1    2    0    0 -0.15067618919E+02 -0.50661806283E+02 -0.79775511843E+02  0.12500000000E+03  0.80419002446E+02 0. -1.
</event>
<event>
 4    1  0.1599584E-001  0.1250000E+03  0.7546771E-02  0.1126479E+00
        -11   -1    0    0    0    0  0.00000000000E+00  0.00000000000E+00  0.12500000000E+03  0.12500000000E+03  0.00000000000E+00 0.  1.
         11   -1    0    0    0    0 -0.00000000000E+00 -0.00000000000E+00 -0.12500000000E+03  0.12500000000E+03  0.00000000000E+00 0. -1.
         24    1    1    2    0    0  0.23943816711E+02  0.91939995090E+02  0.11467998505E+02  0.12500000000E+03  0.80419002446E+02 0.  1.
        -24    1    1    2    0    0 -0.23943816711E+02 -0.91939995090E+02 -0.11467998505E+02  0.12500000000E+03  0.80419002446E+02 0.  0.
</event>
<event>
 4    1  0.1599584E-001  0.1250000E+03  0.7546771E-02  0.1126479E+00
        -11   -1    0    0    0    0  0.00000000000E+00  0.00000000000E+00  0.12500000000E+03  0.12500000000E+03  0.00000000000E+00 0.  1.
         11   -1    0    0    0    0 -0.00000000000E+00 -0.00000000000E+00 -0.12500000000E+03  0.12500000000E+03  0.00000000000E+00 0. -1.
         24    1    1    2    0    0  0.82427842801E+02  0.24537059315E+02 -0.41968648977E+02  0.12500000000E+03  0.80419002446E+02 0.  0.
        -24    1    1    2    0    0 -0.82427842801E+02 -0.24537059315E+02  0.41968648977E+02  0.12500000000E+03  0.80419002446E+02 0.  0.
</event>
<event>
 4    1  0.1599584E-001  0.1250000E+03  0.7546771E-02  0.1126479E+00
        -11   -1    0    0    0    0  0.00000000000E+00  0.00000000000E+00  0.12500000000E+03  0.12500000000E+03  0.00000000000E+00 0.  1.
         11   -1    0    0    0    0 -0.00000000000E+00 -0.00000000000E+00 -0.12500000000E+03  0.12500000000E+03  0.00000000000E+00 0. -1.
         24    1    1    2    0    0 -0.80630777272E+02 -0.50322149260E+02  0.11141952077E+02  0.12500000000E+03  0.80419002446E+02 0.  1.
        -24    1    1    2    0    0  0.80630777272E+02  0.50322149260E+02 -0.11141952077E+02  0.12500000000E+03  0.80419002446E+02 0. -1.
</event>
<event>
 4    1  0.1599584E-001  0.1250000E+03  0.7546771E-02  0.1126479E+00
        -11   -1    0    0    0    0  0.00000000000E+00  0.00000000000E+00  0.12500000000E+03  0.12500000000E+03  0.00000000000E+00 0.  1.
         11   -1    0    0    0    0 -0.00000000000E+00 -0.00000000000E+00 -0.12500000000E+03  0.12500000000E+03  0.00000000000E+00 0. -1.
         24    1    1    2    0    0 -0.28854999109E+02  0.24486424987E+02  0.87895324468E+02  0.12500000000E+03  0.80419002446E+02 0.  1.
        -24    1    1    2    0    0  0.28854999109E+02 -0.24486424987E+02 -0.87895324468E+02  0.12500000000E+03  0.80419002446E+02 0. -1.
</event>
<event>
 4    1  0.1599584E-001  0.1250000E+03  0.7546771E-02  0.1126479E+00
        -11   -1    0    0    0    0  0.00000000000E+00  0.00000000000E+00  0.12500000000E+03  0.12500000000E+03  0.00000000000E+00 0.  1.
         11   -1    0    0    0    0 -0.00000000000E+00 -0.00000000000E+00 -0.12500000000E+03  0.12500000000E+03  0.00000000000E+00 0. -1.
         24    1    1    2    0    0  0.15807405095E+02  0.19777060794E+02  0.92286390417E+02  0.12500000000E+03  0.80419002446E+02 0.  0.
        -24    1    1    2    0    0 -0.15807405095E+02 -0.19777060794E+02 -0.92286390417E+02  0.12500000000E+03  0.80419002446E+02 0. -1.
</event>
<event>
 4    1  0.1599584E-001  0.1250000E+03  0.7546771E-02  0.1126479E+00
        -11   -1    0    0    0    0  0.00000000000E+00  0.00000000000E+00  0.12500000000E+03  0.12500000000E+03  0.00000000000E+00 0.  1.
         11   -1    0    0    0    0 -0.00000000000E+00 -0.00000000000E+00 -0.12500000000E+03  0.12500000000E+03  0.00000000000E+00 0. -1.
         24    1    1    2    0    0  0.80498871357E+02  0.17499795711E+00  0.51746353800E+02  0.12500000000E+03  0.80419002446E+02 0.  1.
        -24    1    1    2    0    0 -0.80498871357E+02 -0.17499795711E+00 -0.51746353800E+02  0.12500000000E+03  0.80419002446E+02 0. -1.
</event>
<event>
 4    1  0.1599584E-001  0.1250000E+03  0.7546771E-02  0.1126479E+00
        -11   -1    0    0    0    0  0.00000000000E+00  0.00000000000E+00  0.12500000000E+03  0.12500000000E+03  0.00000000000E+00 0.  1.
         11   -1    0    0    0    0 -0.00000000000E+00 -0.00000000000E+00 -0.12500000000E+03  0.12500000000E+03  0.00000000000E+00 0. -1.
         24    1    1    2    0    0  0.11868076994E+02 -0.26712467651E+02  0.91122866867E+02  0.12500000000E+03  0.80419002446E+02 0.  0.
        -24    1    1    2    0    0 -0.11868076994E+02  0.26712467651E+02 -0.91122866867E+02  0.12500000000E+03  0.80419002446E+02 0. -1.
</event>
<event>
 4    1  0.1599584E-001  0.1250000E+03  0.7546771E-02  0.1126479E+00
        -11   -1    0    0    0    0  0.00000000000E+00  0.00000000000E+00  0.12500000000E+03  0.12500000000E+03  0.00000000000E+00 0.  1.
         11   -1    0    0    0    0 -0.00000000000E+00 -0.00000000000E+00 -0.12500000000E+03  0.12500000000E+03  0.00000000000E+00 0. -1.
         24    1    1    2    0    0 -0.51701636669E+02  0.38993742045E+02  0.70457170627E+02  0.12500000000E+03  0.80419002446E+02 0.  1.
        -24    1    1    2    0    0  0.51701636669E+02 -0.38993742045E+02 -0.70457170627E+02  0.12500000000E+03  0.80419002446E+02 0. -1.
</event>
<event>
 4    1  0.1599584E-001  0.1250000E+03  0.7546771E-02  0.1126479E+00
        -11   -1    0    0    0    0  0.00000000000E+00  0.00000000000E+00  0.12500000000E+03  0.12500000000E+03  0.00000000000E+00 0.  1.
         11   -1    0    0    0    0 -0.00000000000E+00 -0.00000000000E+00 -0.12500000000E+03  0.12500000000E+03  0.00000000000E+00 0. -1.
         24    1    1    2    0    0 -0.77673484345E+01  0.14679988072E+02  0.94244099519E+02  0.12500000000E+03  0.80419002446E+02 0.  0.
        -24    1    1    2    0    0  0.77673484345E+01 -0.14679988072E+02 -0.94244099519E+02  0.12500000000E+03  0.80419002446E+02 0. -1.
</event>
<event>
 4    1  0.1599584E-001  0.1250000E+03  0.7546771E-02  0.1126479E+00
        -11   -1    0    0    0    0  0.00000000000E+00  0.00000000000E+00  0.12500000000E+03  0.12500000000E+03  0.00000000000E+00 0.  1.
         11   -1    0    0    0    0 -0.00000000000E+00 -0.00000000000E+00 -0.12500000000E+03  0.12500000000E+03  0.00000000000E+00 0. -1.
         24    1    1    2    0    0 -0.38295533355E+02 -0.22475037196E+02  0.84770919977E+02  0.12500000000E+03  0.80419002446E+02 0.  1.
        -24    1    1    2    0    0  0.38295533355E+02  0.22475037196E+02 -0.84770919977E+02  0.12500000000E+03  0.80419002446E+02 0. -1.
</event>
<event>
 4    1  0.1599584E-001  0.1250000E+03  0.7546771E-02  0.1126479E+00
        -11   -1    0    0    0    0  0.00000000000E+00  0.00000000000E+00  0.12500000000E+03  0.12500000000E+03  0.00000000000E+00 0.  1.
         11   -1    0    0    0    0 -0.00000000000E+00 -0.00000000000E+00 -0.12500000000E+03  0.12500000000E+03  0.00000000000E+00 0. -1.
         24    1    1    2    0    0 -0.40597294417E+02 -0.17423077309E+02  0.84888633566E+02  0.12500000000E+03  0.80419002446E+02 0. -1.
        -24    1    1    2    0    0  0.40597294417E+02  0.17423077309E+02 -0.84888633566E+02  0.12500000000E+03  0.80419002446E+02 0.  0.
</event>
<event>
 4    1  0.1599584E-001  0.1250000E+03  0.7546771E-02  0.1126479E+00
        -11   -1    0    0    0    0  0.00000000000E+00  0.00000000000E+00  0.12500000000E+03  0.12500000000E+03  0.00000000000E+00 0.  1.
         11   -1    0    0    0    0 -0.00000000000E+00 -0.00000000000E+00 -0.12500000000E+03  0.12500000000E+03  0.00000000000E+00 0. -1.
         24    1    1    2    0    0  0.36793087608E+02  0.39768052510E+02  0.78883171522E+02  0.12500000000E+03  0.80419002446E+02 0.  1.
        -24    1    1    2    0    0 -0.36793087608E+02 -0.39768052510E+02 -0.78883171522E+02  0.12500000000E+03  0.80419002446E+02 0. -1.
</event>
<event>
 4    1  0.1599584E-001  0.1250000E+03  0.7546771E-02  0.1126479E+00
        -11   -1    0    0    0    0  0.00000000000E+00  0.00000000000E+00  0.12500000000E+03  0.12500000000E+03  0.00000000000E+00 0.  1.
         11   -1    0    0    0    0 -0.00000000000E+00 -0.00000000000E+00 -0.12500000000E+03  0.12500000000E+03  0.00000000000E+00 0. -1.
         24    1    1    2    0    0 -0.10879134687E+02  0.11487429045E+02  0.94379380418E+02  0.12500000000E+03  0.80419002446E+02 0.  1.
        -24    1    1    2    0    0  0.10879134687E+02 -0.11487429045E+02 -0.94379380418E+02  0.12500000000E+03  0.80419002446E+02 0. -1.
</event>
<event>
 4    1  0.1599584E-001  0.1250000E+03  0.7546771E-02  0.1126479E+00
        -11   -1    0    0    0    0  0.00000000000E+00  0.00000000000E+00  0.12500000000E+03  0.12500000000E+03  0.00000000000E+00 0.  1.
         11   -1    0    0    0    0 -0.00000000000E+00 -0.00000000000E+00 -0.12500000000E+03  0.12500000000E+03  0.00000000000E+00 0. -1.
         24    1    1    2    0    0  0.10046485359E+02  0.36716656384E+02  0.87799426658E+02  0.12500000000E+03  0.80419002446E+02 0.  1.
        -24    1    1    2    0    0 -0.10046485359E+02 -0.36716656384E+02 -0.87799426658E+02  0.12500000000E+03  0.80419002446E+02 0. -1.
</event>
<event>
 4    1  0.1599584E-001  0.1250000E+03  0.7546771E-02  0.1126479E+00
        -11   -1    0    0    0    0  0.00000000000E+00  0.00000000000E+00  0.12500000000E+03  0.12500000000E+03  0.00000000000E+00 0.  1.
         11   -1    0    0    0    0 -0.00000000000E+00 -0.00000000000E+00 -0.12500000000E+03  0.12500000000E+03  0.00000000000E+00 0. -1.
         24    1    1    2    0    0 -0.45411637684E+00  0.21562551373E+02  0.93234297349E+02  0.12500000000E+03  0.80419002446E+02 0.  1.
        -24    1    1    2    0    0  0.45411637684E+00 -0.21562551373E+02 -0.93234297349E+02  0.12500000000E+03  0.80419002446E+02 0. -1.
</event>
<event>
 4    1  0.1599584E-001  0.1250000E+03  0.7546771E-02  0.1126479E+00
        -11   -1    0    0    0    0  0.00000000000E+00  0.00000000000E+00  0.12500000000E+03  0.12500000000E+03  0.00000000000E+00 0.  1.
         11   -1    0    0    0    0 -0.00000000000E+00 -0.00000000000E+00 -0.12500000000E+03  0.12500000000E+03  0.00000000000E+00 0. -1.
         24    1    1    2    0    0  0.38672117724E+02 -0.18770473296E+02  0.85498074181E+02  0.12500000000E+03  0.80419002446E+02 0.  1.
        -24    1    1    2    0    0 -0.38672117724E+02  0.18770473296E+02 -0.85498074181E+02  0.12500000000E+03  0.80419002446E+02 0. -1.
</event>
<event>
 4    1  0.1599584E-001  0.1250000E+03  0.7546771E-02  0.1126479E+00
        -11   -1    0    0    0    0  0.00000000000E+00  0.00000000000E+00  0.12500000000E+03  0.12500000000E+03  0.00000000000E+00 0.  1.
         11   -1    0    0    0    0 -0.00000000000E+00 -0.00000000000E+00 -0.12500000000E+03  0.12500000000E+03  0.00000000000E+00 0. -1.
         24    1    1    2    0    0 -0.10396810626E+02 -0.84437934236E+02  0.43816956037E+02  0.12500000000E+03  0.80419002446E+02 0. -1.
        -24    1    1    2    0    0  0.10396810626E+02  0.84437934236E+02 -0.43816956037E+02  0.12500000000E+03  0.80419002446E+02 0.  1.
</event>
<event>
 4    1  0.1599584E-001  0.1250000E+03  0.7546771E-02  0.1126479E+00
        -11   -1    0    0    0    0  0.00000000000E+00  0.00000000000E+00  0.12500000000E+03  0.12500000000E+03  0.00000000000E+00 0.  1.
         11   -1    0    0    0    0 -0.00000000000E+00 -0.00000000000E+00 -0.12500000000E+03  0.12500000000E+03  0.00000000000E+00 0. -1.
         24    1    1    2    0    0 -0.86751151413E+01  0.83977885245E+02  0.45058198063E+02  0.12500000000E+03  0.80419002446E+02 0.  1.
        -24    1    1    2    0    0  0.86751151413E+01 -0.83977885245E+02 -0.45058198063E+02  0.12500000000E+03  0.80419002446E+02 0.  0.
</event>
<event>
 4    1  0.1599584E-001  0.1250000E+03  0.7546771E-02  0.1126479E+00
        -11   -1    0    0    0    0  0.00000000000E+00  0.00000000000E+00  0.12500000000E+03  0.12500000000E+03  0.00000000000E+00 0.  1.
         11   -1    0    0    0    0 -0.00000000000E+00 -0.00000000000E+00 -0.12500000000E+03  0.12500000000E+03  0.00000000000E+00 0. -1.
         24    1    1    2    0    0 -0.36610585780E+02  0.61605484249E+02  0.63420922139E+02  0.12500000000E+03  0.80419002446E+02 0.  0.
        -24    1    1    2    0    0  0.36610585780E+02 -0.61605484249E+02 -0.63420922139E+02  0.12500000000E+03  0.80419002446E+02 0. -1.
</event>
<event>
 4    1  0.1599584E-001  0.1250000E+03  0.7546771E-02  0.1126479E+00
        -11   -1    0    0    0    0  0.00000000000E+00  0.00000000000E+00  0.12500000000E+03  0.12500000000E+03  0.00000000000E+00 0.  1.
         11   -1    0    0    0    0 -0.00000000000E+00 -0.00000000000E+00 -0.12500000000E+03  0.12500000000E+03  0.00000000000E+00 0. -1.
         24    1    1    2    0    0  0.11793356235E+02  0.22982515324E+02  0.92143935143E+02  0.12500000000E+03  0.80419002446E+02 0.  1.
        -24    1    1    2    0    0 -0.11793356235E+02 -0.22982515324E+02 -0.92143935143E+02  0.12500000000E+03  0.80419002446E+02 0. -1.
</event>
<event>
 4    1  0.1599584E-001  0.1250000E+03  0.7546771E-02  0.1126479E+00
        -11   -1    0    0    0    0  0.00000000000E+00  0.00000000000E+00  0.12500000000E+03  0.12500000000E+03  0.00000000000E+00 0.  1.
         11   -1    0    0    0    0 -0.00000000000E+00 -0.00000000000E+00 -0.12500000000E+03  0.12500000000E+03  0.00000000000E+00 0. -1.
         24    1    1    2    0    0  0.28438482770E+02 -0.67846163524E+02  0.61204042665E+02  0.12500000000E+03  0.80419002446E+02 0.  1.
        -24    1    1    2    0    0 -0.28438482770E+02  0.67846163524E+02 -0.61204042665E+02  0.12500000000E+03  0.80419002446E+02 0. -1.
</event>
<event>
 4    1  0.1599584E-001  0.1250000E+03  0.7546771E-02  0.1126479E+00
        -11   -1    0    0    0    0  0.00000000000E+00  0.00000000000E+00  0.12500000000E+03  0.12500000000E+03  0.00000000000E+00 0.  1.
         11   -1    0    0    0    0 -0.00000000000E+00 -0.00000000000E+00 -0.12500000000E+03  0.12500000000E+03  0.00000000000E+00 0. -1.
         24    1    1    2    0    0 -0.29698598191E+02 -0.16691446830E+00  0.90971146253E+02  0.12500000000E+03  0.80419002446E+02 0.  1.
        -24    1    1    2    0    0  0.29698598191E+02  0.16691446830E+00 -0.90971146253E+02  0.12500000000E+03  0.80419002446E+02 0. -1.
</event>
<event>
 4    1  0.1599584E-001  0.1250000E+03  0.7546771E-02  0.1126479E+00
        -11   -1    0    0    0    0  0.00000000000E+00  0.00000000000E+00  0.12500000000E+03  0.12500000000E+03  0.00000000000E+00 0.  1.
         11   -1    0    0    0    0 -0.00000000000E+00 -0.00000000000E+00 -0.12500000000E+03  0.12500000000E+03  0.00000000000E+00 0. -1.
         24    1    1    2    0    0  0.48028939695E+01 -0.37573470545E+02  0.87880319562E+02  0.12500000000E+03  0.80419002446E+02 0.  1.
        -24    1    1    2    0    0 -0.48028939695E+01  0.37573470545E+02 -0.87880319562E+02  0.12500000000E+03  0.80419002446E+02 0. -1.
</event>
<event>
 4    1  0.1599584E-001  0.1250000E+03  0.7546771E-02  0.1126479E+00
        -11   -1    0    0    0    0  0.00000000000E+00  0.00000000000E+00  0.12500000000E+03  0.12500000000E+03  0.00000000000E+00 0. -1.
         11   -1    0    0    0    0 -0.00000000000E+00 -0.00000000000E+00 -0.12500000000E+03  0.12500000000E+03  0.00000000000E+00 0.  1.
         24    1    1    2    0    0 -0.36622673686E+02  0.42400754276E+02 -0.77580537859E+02  0.12500000000E+03  0.80419002446E+02 0.  1.
        -24    1    1    2    0    0  0.36622673686E+02 -0.42400754276E+02  0.77580537859E+02  0.12500000000E+03  0.80419002446E+02 0.  0.
</event>
<event>
 4    1  0.1599584E-001  0.1250000E+03  0.7546771E-02  0.1126479E+00
        -11   -1    0    0    0    0  0.00000000000E+00  0.00000000000E+00  0.12500000000E+03  0.12500000000E+03  0.00000000000E+00 0.  1.
         11   -1    0    0    0    0 -0.00000000000E+00 -0.00000000000E+00 -0.12500000000E+03  0.12500000000E+03  0.00000000000E+00 0. -1.
         24    1    1    2    0    0 -0.56168924092E+02  0.30990541005E+02  0.71010016055E+02  0.12500000000E+03  0.80419002446E+02 0.  1.
        -24    1    1    2    0    0  0.56168924092E+02 -0.30990541005E+02 -0.71010016055E+02  0.12500000000E+03  0.80419002446E+02 0. -1.
</event>
<event>
 4    1  0.1599584E-001  0.1250000E+03  0.7546771E-02  0.1126479E+00
        -11   -1    0    0    0    0  0.00000000000E+00  0.00000000000E+00  0.12500000000E+03  0.12500000000E+03  0.00000000000E+00 0.  1.
         11   -1    0    0    0    0 -0.00000000000E+00 -0.00000000000E+00 -0.12500000000E+03  0.12500000000E+03  0.00000000000E+00 0. -1.
         24    1    1    2    0    0  0.14450123861E+02  0.57330738965E+01  0.94425154645E+02  0.12500000000E+03  0.80419002446E+02 0.  1.
        -24    1    1    2    0    0 -0.14450123861E+02 -0.57330738965E+01 -0.94425154645E+02  0.12500000000E+03  0.80419002446E+02 0. -1.
</event>
<event>
 4    1  0.1599584E-001  0.1250000E+03  0.7546771E-02  0.1126479E+00
        -11   -1    0    0    0    0  0.00000000000E+00  0.00000000000E+00  0.12500000000E+03  0.12500000000E+03  0.00000000000E+00 0.  1.
         11   -1    0    0    0    0 -0.00000000000E+00 -0.00000000000E+00 -0.12500000000E+03  0.12500000000E+03  0.00000000000E+00 0. -1.
         24    1    1    2    0    0  0.45155463601E+02  0.24545648677E+02  0.80723474180E+02  0.12500000000E+03  0.80419002446E+02 0.  1.
        -24    1    1    2    0    0 -0.45155463601E+02 -0.24545648677E+02 -0.80723474180E+02  0.12500000000E+03  0.80419002446E+02 0. -1.
</event>
<event>
 4    1  0.1599584E-001  0.1250000E+03  0.7546771E-02  0.1126479E+00
        -11   -1    0    0    0    0  0.00000000000E+00  0.00000000000E+00  0.12500000000E+03  0.12500000000E+03  0.00000000000E+00 0.  1.
         11   -1    0    0    0    0 -0.00000000000E+00 -0.00000000000E+00 -0.12500000000E+03  0.12500000000E+03  0.00000000000E+00 0. -1.
         24    1    1    2    0    0  0.92369238231E+02  0.12139665654E+02  0.21870902864E+02  0.12500000000E+03  0.80419002446E+02 0.  0.
        -24    1    1    2    0    0 -0.92369238231E+02 -0.12139665654E+02 -0.21870902864E+02  0.12500000000E+03  0.80419002446E+02 0.  1.
</event>
<event>
 4    1  0.1599584E-001  0.1250000E+03  0.7546771E-02  0.1126479E+00
        -11   -1    0    0    0    0  0.00000000000E+00  0.00000000000E+00  0.12500000000E+03  0.12500000000E+03  0.00000000000E+00 0.  1.
         11   -1    0    0    0    0 -0.00000000000E+00 -0.00000000000E+00 -0.12500000000E+03  0.12500000000E+03  0.00000000000E+00 0. -1.
         24    1    1    2    0    0 -0.80559340073E+02  0.25931381563E+02  0.44671469898E+02  0.12500000000E+03  0.80419002446E+02 0.  1.
        -24    1    1    2    0    0  0.80559340073E+02 -0.25931381563E+02 -0.44671469898E+02  0.12500000000E+03  0.80419002446E+02 0. -1.
</event>
<event>
 4    1  0.1599584E-001  0.1250000E+03  0.7546771E-02  0.1126479E+00
        -11   -1    0    0    0    0  0.00000000000E+00  0.00000000000E+00  0.12500000000E+03  0.12500000000E+03  0.00000000000E+00 0.  1.
         11   -1    0    0    0    0 -0.00000000000E+00 -0.00000000000E+00 -0.12500000000E+03  0.12500000000E+03  0.00000000000E+00 0. -1.
         24    1    1    2    0    0  0.73977240287E+02 -0.30799768966E+02 -0.52311816989E+02  0.12500000000E+03  0.80419002446E+02 0. -1.
        -24    1    1    2    0    0 -0.73977240287E+02  0.30799768966E+02  0.52311816989E+02  0.12500000000E+03  0.80419002446E+02 0.  0.
</event>
<event>
 4    1  0.1599584E-001  0.1250000E+03  0.7546771E-02  0.1126479E+00
        -11   -1    0    0    0    0  0.00000000000E+00  0.00000000000E+00  0.12500000000E+03  0.12500000000E+03  0.00000000000E+00 0.  1.
         11   -1    0    0    0    0 -0.00000000000E+00 -0.00000000000E+00 -0.12500000000E+03  0.12500000000E+03  0.00000000000E+00 0. -1.
         24    1    1    2    0    0 -0.28487041217E+02  0.21430191634E+02  0.88808892656E+02  0.12500000000E+03  0.80419002446E+02 0.  1.
        -24    1    1    2    0    0  0.28487041217E+02 -0.21430191634E+02 -0.88808892656E+02  0.12500000000E+03  0.80419002446E+02 0. -1.
</event>
<event>
 4    1  0.1599584E-001  0.1250000E+03  0.7546771E-02  0.1126479E+00
        -11   -1    0    0    0    0  0.00000000000E+00  0.00000000000E+00  0.12500000000E+03  0.12500000000E+03  0.00000000000E+00 0. -1.
         11   -1    0    0    0    0 -0.00000000000E+00 -0.00000000000E+00 -0.12500000000E+03  0.12500000000E+03  0.00000000000E+00 0.  1.
         24    1    1    2    0    0  0.54346870038E+02  0.60187150019E+02  0.50810517959E+02  0.12500000000E+03  0.80419002446E+02 0.  0.
        -24    1    1    2    0    0 -0.54346870038E+02 -0.60187150019E+02 -0.50810517959E+02  0.12500000000E+03  0.80419002446E+02 0.  1.
</event>
<event>
 4    1  0.1599584E-001  0.1250000E+03  0.7546771E-02  0.1126479E+00
        -11   -1    0    0    0    0  0.00000000000E+00  0.00000000000E+00  0.12500000000E+03  0.12500000000E+03  0.00000000000E+00 0.  1.
         11   -1    0    0    0    0 -0.00000000000E+00 -0.00000000000E+00 -0.12500000000E+03  0.12500000000E+03  0.00000000000E+00 0. -1.
         24    1    1    2    0    0  0.74412107224E+02  0.41848977457E+02  0.43235233663E+02  0.12500000000E+03  0.80419002446E+02 0.  1.
        -24    1    1    2    0    0 -0.74412107224E+02 -0.41848977457E+02 -0.43235233663E+02  0.12500000000E+03  0.80419002446E+02 0. -1.
</event>
<event>
 4    1  0.1599584E-001  0.1250000E+03  0.7546771E-02  0.1126479E+00
        -11   -1    0    0    0    0  0.00000000000E+00  0.00000000000E+00  0.12500000000E+03  0.12500000000E+03  0.00000000000E+00 0.  1.
         11   -1    0    0    0    0 -0.00000000000E+00 -0.00000000000E+00 -0.12500000000E+03  0.12500000000E+03  0.00000000000E+00 0. -1.
         24    1    1    2    0    0  0.19390445675E+02 -0.86052128039E+01  0.93315298718E+02  0.12500000000E+03  0.80419002446E+02 0.  1.
        -24    1    1    2    0    0 -0.19390445675E+02  0.86052128039E+01 -0.93315298718E+02  0.12500000000E+03  0.80419002446E+02 0.  0.
</event>
<event>
 4    1  0.1599584E-001  0.1250000E+03  0.7546771E-02  0.1126479E+00
        -11   -1    0    0    0    0  0.00000000000E+00  0.00000000000E+00  0.12500000000E+03  0.12500000000E+03  0.00000000000E+00 0.  1.
         11   -1    0    0    0    0 -0.00000000000E+00 -0.00000000000E+00 -0.12500000000E+03  0.12500000000E+03  0.00000000000E+00 0. -1.
         24    1    1    2    0    0  0.34355145325E+02  0.28037901550E+02  0.84802028938E+02  0.12500000000E+03  0.80419002446E+02 0.  1.
        -24    1    1    2    0    0 -0.34355145325E+02 -0.28037901550E+02 -0.84802028938E+02  0.12500000000E+03  0.80419002446E+02 0. -1.
</event>
<event>
 4    1  0.1599584E-001  0.1250000E+03  0.7546771E-02  0.1126479E+00
        -11   -1    0    0    0    0  0.00000000000E+00  0.00000000000E+00  0.12500000000E+03  0.12500000000E+03  0.00000000000E+00 0.  1.
         11   -1    0    0    0    0 -0.00000000000E+00 -0.00000000000E+00 -0.12500000000E+03  0.12500000000E+03  0.00000000000E+00 0. -1.
         24    1    1    2    0    0  0.29419440916E+02 -0.11097697913E+02  0.90383193365E+02  0.12500000000E+03  0.80419002446E+02 0.  1.
        -24    1    1    2    0    0 -0.29419440916E+02  0.11097697913E+02 -0.90383193365E+02  0.12500000000E+03  0.80419002446E+02 0. -1.
</event>
<event>
 4    1  0.1599584E-001  0.1250000E+03  0.7546771E-02  0.1126479E+00
        -11   -1    0    0    0    0  0.00000000000E+00  0.00000000000E+00  0.12500000000E+03  0.12500000000E+03  0.00000000000E+00 0.  1.
         11   -1    0    0    0    0 -0.00000000000E+00 -0.00000000000E+00 -0.12500000000E+03  0.12500000000E+03  0.00000000000E+00 0. -1.
         24    1    1    2    0    0 -0.55256079164E+02  0.63588946247E+02  0.45398190231E+02  0.12500000000E+03  0.80419002446E+02 0.  1.
        -24    1    1    2    0    0  0.55256079164E+02 -0.63588946247E+02 -0.45398190231E+02  0.12500000000E+03  0.80419002446E+02 0. -1.
</event>
<event>
 4    1  0.1599584E-001  0.1250000E+03  0.7546771E-02  0.1126479E+00
        -11   -1    0    0    0    0  0.00000000000E+00  0.00000000000E+00  0.12500000000E+03  0.12500000000E+03  0.00000000000E+00 0.  1.
         11   -1    0    0    0    0 -0.00000000000E+00 -0.00000000000E+00 -0.12500000000E+03  0.12500000000E+03  0.00000000000E+00 0. -1.
         24    1    1    2    0    0 -0.59682107369E+02  0.38242697626E+02  0.64290949471E+02  0.12500000000E+03  0.80419002446E+02 0.  1.
        -24    1    1    2    0    0  0.59682107369E+02 -0.38242697626E+02 -0.64290949471E+02  0.12500000000E+03  0.80419002446E+02 0. -1.
</event>
<event>
 4    1  0.1599584E-001  0.1250000E+03  0.7546771E-02  0.1126479E+00
        -11   -1    0    0    0    0  0.00000000000E+00  0.00000000000E+00  0.12500000000E+03  0.12500000000E+03  0.00000000000E+00 0.  1.
         11   -1    0    0    0    0 -0.00000000000E+00 -0.00000000000E+00 -0.12500000000E+03  0.12500000000E+03  0.00000000000E+00 0. -1.
         24    1    1    2    0    0 -0.18756161129E+02  0.36050791717E+02  0.86639084032E+02  0.12500000000E+03  0.80419002446E+02 0.  1.
        -24    1    1    2    0    0  0.18756161129E+02 -0.36050791717E+02 -0.86639084032E+02  0.12500000000E+03  0.80419002446E+02 0. -1.
</event>
<event>
 4    1  0.1599584E-001  0.1250000E+03  0.7546771E-02  0.1126479E+00
        -11   -1    0    0    0    0  0.00000000000E+00  0.00000000000E+00  0.12500000000E+03  0.12500000000E+03  0.00000000000E+00 0.  1.
         11   -1    0    0    0    0 -0.00000000000E+00 -0.00000000000E+00 -0.12500000000E+03  0.12500000000E+03  0.00000000000E+00 0. -1.
         24    1    1    2    0    0 -0.10071095534E+02  0.55431568777E+02  0.77354368095E+02  0.12500000000E+03  0.80419002446E+02 0.  1.
        -24    1    1    2    0    0  0.10071095534E+02 -0.55431568777E+02 -0.77354368095E+02  0.12500000000E+03  0.80419002446E+02 0. -1.
</event>
<event>
 4    1  0.1599584E-001  0.1250000E+03  0.7546771E-02  0.1126479E+00
        -11   -1    0    0    0    0  0.00000000000E+00  0.00000000000E+00  0.12500000000E+03  0.12500000000E+03  0.00000000000E+00 0.  1.
         11   -1    0    0    0    0 -0.00000000000E+00 -0.00000000000E+00 -0.12500000000E+03  0.12500000000E+03  0.00000000000E+00 0. -1.
         24    1    1    2    0    0  0.50533599258E+02 -0.32277309532E+02  0.74580927059E+02  0.12500000000E+03  0.80419002446E+02 0.  1.
        -24    1    1    2    0    0 -0.50533599258E+02  0.32277309532E+02 -0.74580927059E+02  0.12500000000E+03  0.80419002446E+02 0. -1.
</event>
<event>
 4    1  0.1599584E-001  0.1250000E+03  0.7546771E-02  0.1126479E+00
        -11   -1    0    0    0    0  0.00000000000E+00  0.00000000000E+00  0.12500000000E+03  0.12500000000E+03  0.00000000000E+00 0.  1.
         11   -1    0    0    0    0 -0.00000000000E+00 -0.00000000000E+00 -0.12500000000E+03  0.12500000000E+03  0.00000000000E+00 0. -1.
         24    1    1    2    0    0  0.85439371036E+02 -0.42536279471E+02 -0.69687051455E+01  0.12500000000E+03  0.80419002446E+02 0. -1.
        -24    1    1    2    0    0 -0.85439371036E+02  0.42536279471E+02  0.69687051455E+01  0.12500000000E+03  0.80419002446E+02 0.  1.
</event>
<event>
 4    1  0.1599584E-001  0.1250000E+03  0.7546771E-02  0.1126479E+00
        -11   -1    0    0    0    0  0.00000000000E+00  0.00000000000E+00  0.12500000000E+03  0.12500000000E+03  0.00000000000E+00 0.  1.
         11   -1    0    0    0    0 -0.00000000000E+00 -0.00000000000E+00 -0.12500000000E+03  0.12500000000E+03  0.00000000000E+00 0. -1.
         24    1    1    2    0    0  0.13643552452E+02  0.65546382764E+02  0.68376232922E+02  0.12500000000E+03  0.80419002446E+02 0.  1.
        -24    1    1    2    0    0 -0.13643552452E+02 -0.65546382764E+02 -0.68376232922E+02  0.12500000000E+03  0.80419002446E+02 0. -1.
</event>
<event>
 4    1  0.1599584E-001  0.1250000E+03  0.7546771E-02  0.1126479E+00
        -11   -1    0    0    0    0  0.00000000000E+00  0.00000000000E+00  0.12500000000E+03  0.12500000000E+03  0.00000000000E+00 0.  1.
         11   -1    0    0    0    0 -0.00000000000E+00 -0.00000000000E+00 -0.12500000000E+03  0.12500000000E+03  0.00000000000E+00 0. -1.
         24    1    1    2    0    0 -0.83079959334E+02  0.47050759155E+02  0.64599122044E+01  0.12500000000E+03  0.80419002446E+02 0. -1.
        -24    1    1    2    0    0  0.83079959334E+02 -0.47050759155E+02 -0.64599122044E+01  0.12500000000E+03  0.80419002446E+02 0.  1.
</event>
<event>
 4    1  0.1599584E-001  0.1250000E+03  0.7546771E-02  0.1126479E+00
        -11   -1    0    0    0    0  0.00000000000E+00  0.00000000000E+00  0.12500000000E+03  0.12500000000E+03  0.00000000000E+00 0.  1.
         11   -1    0    0    0    0 -0.00000000000E+00 -0.00000000000E+00 -0.12500000000E+03  0.12500000000E+03  0.00000000000E+00 0. -1.
         24    1    1    2    0    0  0.42729978178E+01 -0.17835098485E+01  0.95584227924E+02  0.12500000000E+03  0.80419002446E+02 0.  1.
        -24    1    1    2    0    0 -0.42729978178E+01  0.17835098485E+01 -0.95584227924E+02  0.12500000000E+03  0.80419002446E+02 0.  0.
</event>
<event>
 4    1  0.1599584E-001  0.1250000E+03  0.7546771E-02  0.1126479E+00
        -11   -1    0    0    0    0  0.00000000000E+00  0.00000000000E+00  0.12500000000E+03  0.12500000000E+03  0.00000000000E+00 0.  1.
         11   -1    0    0    0    0 -0.00000000000E+00 -0.00000000000E+00 -0.12500000000E+03  0.12500000000E+03  0.00000000000E+00 0. -1.
         24    1    1    2    0    0 -0.44186890965E+02  0.10229120101E+02  0.84265460388E+02  0.12500000000E+03  0.80419002446E+02 0.  1.
        -24    1    1    2    0    0  0.44186890965E+02 -0.10229120101E+02 -0.84265460388E+02  0.12500000000E+03  0.80419002446E+02 0. -1.
</event>
<event>
 4    1  0.1599584E-001  0.1250000E+03  0.7546771E-02  0.1126479E+00
        -11   -1    0    0    0    0  0.00000000000E+00  0.00000000000E+00  0.12500000000E+03  0.12500000000E+03  0.00000000000E+00 0.  1.
         11   -1    0    0    0    0 -0.00000000000E+00 -0.00000000000E+00 -0.12500000000E+03  0.12500000000E+03  0.00000000000E+00 0. -1.
         24    1    1    2    0    0 -0.17251636006E+02 -0.10552853923E+02  0.93535032874E+02  0.12500000000E+03  0.80419002446E+02 0.  1.
        -24    1    1    2    0    0  0.17251636006E+02  0.10552853923E+02 -0.93535032874E+02  0.12500000000E+03  0.80419002446E+02 0. -1.
</event>
<event>
 4    1  0.1599584E-001  0.1250000E+03  0.7546771E-02  0.1126479E+00
        -11   -1    0    0    0    0  0.00000000000E+00  0.00000000000E+00  0.12500000000E+03  0.12500000000E+03  0.00000000000E+00 0.  1.
         11   -1    0    0    0    0 -0.00000000000E+00 -0.00000000000E+00 -0.12500000000E+03  0.12500000000E+03  0.00000000000E+00 0. -1.
         24    1    1    2    0    0 -0.34912933465E+02 -0.79800404498E+02 -0.39632897502E+02  0.12500000000E+03  0.80419002446E+02 0. -1.
        -24    1    1    2    0    0  0.34912933465E+02  0.79800404498E+02  0.39632897502E+02  0.12500000000E+03  0.80419002446E+02 0.  1.
</event>
<event>
 4    1  0.1599584E-001  0.1250000E+03  0.7546771E-02  0.1126479E+00
        -11   -1    0    0    0    0  0.00000000000E+00  0.00000000000E+00  0.12500000000E+03  0.12500000000E+03  0.00000000000E+00 0.  1.
         11   -1    0    0    0    0 -0.00000000000E+00 -0.00000000000E+00 -0.12500000000E+03  0.12500000000E+03  0.00000000000E+00 0. -1.
         24    1    1    2    0    0 -0.19049316099E+02  0.12402943686E+02  0.92957380502E+02  0.12500000000E+03  0.80419002446E+02 0.  1.
        -24    1    1    2    0    0  0.19049316099E+02 -0.12402943686E+02 -0.92957380502E+02  0.12500000000E+03  0.80419002446E+02 0. -1.
</event>
<event>
 4    1  0.1599584E-001  0.1250000E+03  0.7546771E-02  0.1126479E+00
        -11   -1    0    0    0    0  0.00000000000E+00  0.00000000000E+00  0.12500000000E+03  0.12500000000E+03  0.00000000000E+00 0.  1.
         11   -1    0    0    0    0 -0.00000000000E+00 -0.00000000000E+00 -0.12500000000E+03  0.12500000000E+03  0.00000000000E+00 0. -1.
         24    1    1    2    0    0  0.10028525126E+02  0.37202852413E+02  0.87596578140E+02  0.12500000000E+03  0.80419002446E+02 0.  1.
        -24    1    1    2    0    0 -0.10028525126E+02 -0.37202852413E+02 -0.87596578140E+02  0.12500000000E+03  0.80419002446E+02 0. -1.
</event>
<event>
 4    1  0.1599584E-001  0.1250000E+03  0.7546771E-02  0.1126479E+00
        -11   -1    0    0    0    0  0.00000000000E+00  0.00000000000E+00  0.12500000000E+03  0.12500000000E+03  0.00000000000E+00 0.  1.
         11   -1    0    0    0    0 -0.00000000000E+00 -0.00000000000E+00 -0.12500000000E+03  0.12500000000E+03  0.00000000000E+00 0. -1.
         24    1    1    2    0    0  0.38595969680E+02 -0.20231312807E+02 -0.85198762621E+02  0.12500000000E+03  0.80419002446E+02 0.  0.
        -24    1    1    2    0    0 -0.38595969680E+02  0.20231312807E+02  0.85198762621E+02  0.12500000000E+03  0.80419002446E+02 0.  1.
</event>
<event>
 4    1  0.1599584E-001  0.1250000E+03  0.7546771E-02  0.1126479E+00
        -11   -1    0    0    0    0  0.00000000000E+00  0.00000000000E+00  0.12500000000E+03  0.12500000000E+03  0.00000000000E+00 0.  1.
         11   -1    0    0    0    0 -0.00000000000E+00 -0.00000000000E+00 -0.12500000000E+03  0.12500000000E+03  0.00000000000E+00 0. -1.
         24    1    1    2    0    0 -0.81478505485E+02  0.24224176149E+02  0.43957098169E+02  0.12500000000E+03  0.80419002446E+02 0.  1.
        -24    1    1    2    0    0  0.81478505485E+02 -0.24224176149E+02 -0.43957098169E+02  0.12500000000E+03  0.80419002446E+02 0. -1.
</event>
<event>
 4    1  0.1599584E-001  0.1250000E+03  0.7546771E-02  0.1126479E+00
        -11   -1    0    0    0    0  0.00000000000E+00  0.00000000000E+00  0.12500000000E+03  0.12500000000E+03  0.00000000000E+00 0.  1.
         11   -1    0    0    0    0 -0.00000000000E+00 -0.00000000000E+00 -0.12500000000E+03  0.12500000000E+03  0.00000000000E+00 0. -1.
         24    1    1    2    0    0  0.37190618008E+02  0.55713383526E+02  0.68342233458E+02  0.12500000000E+03  0.80419002446E+02 0.  1.
        -24    1    1    2    0    0 -0.37190618008E+02 -0.55713383526E+02 -0.68342233458E+02  0.12500000000E+03  0.80419002446E+02 0. -1.
</event>
<event>
 4    1  0.1599584E-001  0.1250000E+03  0.7546771E-02  0.1126479E+00
        -11   -1    0    0    0    0  0.00000000000E+00  0.00000000000E+00  0.12500000000E+03  0.12500000000E+03  0.00000000000E+00 0.  1.
         11   -1    0    0    0    0 -0.00000000000E+00 -0.00000000000E+00 -0.12500000000E+03  0.12500000000E+03  0.00000000000E+00 0. -1.
         24    1    1    2    0    0  0.27100268575E+02  0.26419993287E+02  0.87893932916E+02  0.12500000000E+03  0.80419002446E+02 0.  1.
        -24    1    1    2    0    0 -0.27100268575E+02 -0.26419993287E+02 -0.87893932916E+02  0.12500000000E+03  0.80419002446E+02 0. -1.
</event>
<event>
 4    1  0.1599584E-001  0.1250000E+03  0.7546771E-02  0.1126479E+00
        -11   -1    0    0    0    0  0.00000000000E+00  0.00000000000E+00  0.12500000000E+03  0.12500000000E+03  0.00000000000E+00 0. -1.
         11   -1    0    0    0    0 -0.00000000000E+00 -0.00000000000E+00 -0.12500000000E+03  0.12500000000E+03  0.00000000000E+00 0.  1.
         24    1    1    2    0    0  0.35880055048E+02  0.77181077124E+02 -0.43743422699E+02  0.12500000000E+03  0.80419002446E+02 0.  1.
        -24    1    1    2    0    0 -0.35880055048E+02 -0.77181077124E+02  0.43743422699E+02  0.12500000000E+03  0.80419002446E+02 0.  0.
</event>
<event>
 4    1  0.1599584E-001  0.1250000E+03  0.7546771E-02  0.1126479E+00
        -11   -1    0    0    0    0  0.00000000000E+00  0.00000000000E+00  0.12500000000E+03  0.12500000000E+03  0.00000000000E+00 0.  1.
         11   -1    0    0    0    0 -0.00000000000E+00 -0.00000000000E+00 -0.12500000000E+03  0.12500000000E+03  0.00000000000E+00 0. -1.
         24    1    1    2    0    0 -0.92596036299E+01 -0.75213025708E+02  0.58438382507E+02  0.12500000000E+03  0.80419002446E+02 0. -1.
        -24    1    1    2    0    0  0.92596036299E+01  0.75213025708E+02 -0.58438382507E+02  0.12500000000E+03  0.80419002446E+02 0.  0.
</event>
<event>
 4    1  0.1599584E-001  0.1250000E+03  0.7546771E-02  0.1126479E+00
        -11   -1    0    0    0    0  0.00000000000E+00  0.00000000000E+00  0.12500000000E+03  0.12500000000E+03  0.00000000000E+00 0.  1.
         11   -1    0    0    0    0 -0.00000000000E+00 -0.00000000000E+00 -0.12500000000E+03  0.12500000000E+03  0.00000000000E+00 0. -1.
         24    1    1    2    0    0  0.20570857590E+02 -0.51092830590E+02  0.78256926377E+02  0.12500000000E+03  0.80419002446E+02 0.  1.
        -24    1    1    2    0    0 -0.20570857590E+02  0.51092830590E+02 -0.78256926377E+02  0.12500000000E+03  0.80419002446E+02 0. -1.
</event>
<event>
 4    1  0.1599584E-001  0.1250000E+03  0.7546771E-02  0.1126479E+00
        -11   -1    0    0    0    0  0.00000000000E+00  0.00000000000E+00  0.12500000000E+03  0.12500000000E+03  0.00000000000E+00 0.  1.
         11   -1    0    0    0    0 -0.00000000000E+00 -0.00000000000E+00 -0.12500000000E+03  0.12500000000E+03  0.00000000000E+00 0. -1.
         24    1    1    2    0    0  0.43256115650E+02  0.50840017044E+02  0.68571022827E+02  0.12500000000E+03  0.80419002446E+02 0.  1.
        -24    1    1    2    0    0 -0.43256115650E+02 -0.50840017044E+02 -0.68571022827E+02  0.12500000000E+03  0.80419002446E+02 0. -1.
</event>
<event>
 4    1  0.1599584E-001  0.1250000E+03  0.7546771E-02  0.1126479E+00
        -11   -1    0    0    0    0  0.00000000000E+00  0.00000000000E+00  0.12500000000E+03  0.12500000000E+03  0.00000000000E+00 0.  1.
         11   -1    0    0    0    0 -0.00000000000E+00 -0.00000000000E+00 -0.12500000000E+03  0.12500000000E+03  0.00000000000E+00 0. -1.
         24    1    1    2    0    0  0.86770049995E+02  0.51340480891E+01  0.40029789153E+02  0.12500000000E+03  0.80419002446E+02 0.  0.
        -24    1    1    2    0    0 -0.86770049995E+02 -0.51340480891E+01 -0.40029789153E+02  0.12500000000E+03  0.80419002446E+02 0.  1.
</event>
<event>
 4    1  0.1599584E-001  0.1250000E+03  0.7546771E-02  0.1126479E+00
        -11   -1    0    0    0    0  0.00000000000E+00  0.00000000000E+00  0.12500000000E+03  0.12500000000E+03  0.00000000000E+00 0.  1.
         11   -1    0    0    0    0 -0.00000000000E+00 -0.00000000000E+00 -0.12500000000E+03  0.12500000000E+03  0.00000000000E+00 0. -1.
         24    1    1    2    0    0 -0.23962959333E+02  0.78930338742E+01  0.92310674583E+02  0.12500000000E+03  0.80419002446E+02 0.  1.
        -24    1    1    2    0    0  0.23962959333E+02 -0.78930338742E+01 -0.92310674583E+02  0.12500000000E+03  0.80419002446E+02 0. -1.
</event>
<event>
 4    1  0.1599584E-001  0.1250000E+03  0.7546771E-02  0.1126479E+00
        -11   -1    0    0    0    0  0.00000000000E+00  0.00000000000E+00  0.12500000000E+03  0.12500000000E+03  0.00000000000E+00 0.  1.
         11   -1    0    0    0    0 -0.00000000000E+00 -0.00000000000E+00 -0.12500000000E+03  0.12500000000E+03  0.00000000000E+00 0. -1.
         24    1    1    2    0    0  0.79505012891E+02  0.47097535794E+02  0.24870848255E+02  0.12500000000E+03  0.80419002446E+02 0. -1.
        -24    1    1    2    0    0 -0.79505012891E+02 -0.47097535794E+02 -0.24870848255E+02  0.12500000000E+03  0.80419002446E+02 0.  1.
</event>
<event>
 4    1  0.1599584E-001  0.1250000E+03  0.7546771E-02  0.1126479E+00
        -11   -1    0    0    0    0  0.00000000000E+00  0.00000000000E+00  0.12500000000E+03  0.12500000000E+03  0.00000000000E+00 0.  1.
         11   -1    0    0    0    0 -0.00000000000E+00 -0.00000000000E+00 -0.12500000000E+03  0.12500000000E+03  0.00000000000E+00 0. -1.
         24    1    1    2    0    0  0.17205416056E+02  0.82831899519E+02  0.44728448732E+02  0.12500000000E+03  0.80419002446E+02 0.  1.
        -24    1    1    2    0    0 -0.17205416056E+02 -0.82831899519E+02 -0.44728448732E+02  0.12500000000E+03  0.80419002446E+02 0. -1.
</event>
<event>
 4    1  0.1599584E-001  0.1250000E+03  0.7546771E-02  0.1126479E+00
        -11   -1    0    0    0    0  0.00000000000E+00  0.00000000000E+00  0.12500000000E+03  0.12500000000E+03  0.00000000000E+00 0.  1.
         11   -1    0    0    0    0 -0.00000000000E+00 -0.00000000000E+00 -0.12500000000E+03  0.12500000000E+03  0.00000000000E+00 0. -1.
         24    1    1    2    0    0  0.39013537296E+02 -0.16619849085E+02  0.85787578178E+02  0.12500000000E+03  0.80419002446E+02 0.  1.
        -24    1    1    2    0    0 -0.39013537296E+02  0.16619849085E+02 -0.85787578178E+02  0.12500000000E+03  0.80419002446E+02 0. -1.
</event>
<event>
 4    1  0.1599584E-001  0.1250000E+03  0.7546771E-02  0.1126479E+00
        -11   -1    0    0    0    0  0.00000000000E+00  0.00000000000E+00  0.12500000000E+03  0.12500000000E+03  0.00000000000E+00 0.  1.
         11   -1    0    0    0    0 -0.00000000000E+00 -0.00000000000E+00 -0.12500000000E+03  0.12500000000E+03  0.00000000000E+00 0. -1.
         24    1    1    2    0    0 -0.66922480822E+02  0.30967206813E+02  0.60993423485E+02  0.12500000000E+03  0.80419002446E+02 0.  1.
        -24    1    1    2    0    0  0.66922480822E+02 -0.30967206813E+02 -0.60993423485E+02  0.12500000000E+03  0.80419002446E+02 0. -1.
</event>
<event>
 4    1  0.1599584E-001  0.1250000E+03  0.7546771E-02  0.1126479E+00
        -11   -1    0    0    0    0  0.00000000000E+00  0.00000000000E+00  0.12500000000E+03  0.12500000000E+03  0.00000000000E+00 0.  1.
         11   -1    0    0    0    0 -0.00000000000E+00 -0.00000000000E+00 -0.12500000000E+03  0.12500000000E+03  0.00000000000E+00 0. -1.
         24    1    1    2    0    0  0.46113245213E+02  0.73974144099E+02  0.39486436486E+02  0.12500000000E+03  0.80419002446E+02 0.  1.
        -24    1    1    2    0    0 -0.46113245213E+02 -0.73974144099E+02 -0.39486436486E+02  0.12500000000E+03  0.80419002446E+02 0. -1.
</event>
<event>
 4    1  0.1599584E-001  0.1250000E+03  0.7546771E-02  0.1126479E+00
        -11   -1    0    0    0    0  0.00000000000E+00  0.00000000000E+00  0.12500000000E+03  0.12500000000E+03  0.00000000000E+00 0.  1.
         11   -1    0    0    0    0 -0.00000000000E+00 -0.00000000000E+00 -0.12500000000E+03  0.12500000000E+03  0.00000000000E+00 0. -1.
         24    1    1    2    0    0 -0.68774351064E+02 -0.40250792771E+02  0.52988171914E+02  0.12500000000E+03  0.80419002446E+02 0.  1.
        -24    1    1    2    0    0  0.68774351064E+02  0.40250792771E+02 -0.52988171914E+02  0.12500000000E+03  0.80419002446E+02 0. -1.
</event>
<event>
 4    1  0.1599584E-001  0.1250000E+03  0.7546771E-02  0.1126479E+00
        -11   -1    0    0    0    0  0.00000000000E+00  0.00000000000E+00  0.12500000000E+03  0.12500000000E+03  0.00000000000E+00 0.  1.
         11   -1    0    0    0    0 -0.00000000000E+00 -0.00000000000E+00 -0.12500000000E+03  0.12500000000E+03  0.00000000000E+00 0. -1.
         24    1    1    2    0    0  0.47203810508E+02 -0.79119358386E+02  0.25878783740E+02  0.12500000000E+03  0.80419002446E+02 0.  1.
        -24    1    1    2    0    0 -0.47203810508E+02  0.79119358386E+02 -0.25878783740E+02  0.12500000000E+03  0.80419002446E+02 0. -1.
</event>
<event>
 4    1  0.1599584E-001  0.1250000E+03  0.7546771E-02  0.1126479E+00
        -11   -1    0    0    0    0  0.00000000000E+00  0.00000000000E+00  0.12500000000E+03  0.12500000000E+03  0.00000000000E+00 0.  1.
         11   -1    0    0    0    0 -0.00000000000E+00 -0.00000000000E+00 -0.12500000000E+03  0.12500000000E+03  0.00000000000E+00 0. -1.
         24    1    1    2    0    0 -0.18535580163E+01  0.82075445008E+02 -0.49172855266E+02  0.12500000000E+03  0.80419002446E+02 0. -1.
        -24    1    1    2    0    0  0.18535580163E+01 -0.82075445008E+02  0.49172855266E+02  0.12500000000E+03  0.80419002446E+02 0.  1.
</event>
<event>
 4    1  0.1599584E-001  0.1250000E+03  0.7546771E-02  0.1126479E+00
        -11   -1    0    0    0    0  0.00000000000E+00  0.00000000000E+00  0.12500000000E+03  0.12500000000E+03  0.00000000000E+00 0.  1.
         11   -1    0    0    0    0 -0.00000000000E+00 -0.00000000000E+00 -0.12500000000E+03  0.12500000000E+03  0.00000000000E+00 0. -1.
         24    1    1    2    0    0  0.11374861441E+01  0.43681139222E+02  0.85137819136E+02  0.12500000000E+03  0.80419002446E+02 0.  1.
        -24    1    1    2    0    0 -0.11374861441E+01 -0.43681139222E+02 -0.85137819136E+02  0.12500000000E+03  0.80419002446E+02 0. -1.
</event>
<event>
 4    1  0.1599584E-001  0.1250000E+03  0.7546771E-02  0.1126479E+00
        -11   -1    0    0    0    0  0.00000000000E+00  0.00000000000E+00  0.12500000000E+03  0.12500000000E+03  0.00000000000E+00 0.  1.
         11   -1    0    0    0    0 -0.00000000000E+00 -0.00000000000E+00 -0.12500000000E+03  0.12500000000E+03  0.00000000000E+00 0. -1.
         24    1    1    2    0    0 -0.12059717552E+01 -0.52245214995E+02  0.80167120367E+02  0.12500000000E+03  0.80419002446E+02 0.  1.
        -24    1    1    2    0    0  0.12059717552E+01  0.52245214995E+02 -0.80167120367E+02  0.12500000000E+03  0.80419002446E+02 0. -1.
</event>
<event>
 4    1  0.1599584E-001  0.1250000E+03  0.7546771E-02  0.1126479E+00
        -11   -1    0    0    0    0  0.00000000000E+00  0.00000000000E+00  0.12500000000E+03  0.12500000000E+03  0.00000000000E+00 0.  1.
         11   -1    0    0    0    0 -0.00000000000E+00 -0.00000000000E+00 -0.12500000000E+03  0.12500000000E+03  0.00000000000E+00 0. -1.
         24    1    1    2    0    0 -0.47150780489E+02  0.65933155634E+02  0.50866560067E+02  0.12500000000E+03  0.80419002446E+02 0.  0.
        -24    1    1    2    0    0  0.47150780489E+02 -0.65933155634E+02 -0.50866560067E+02  0.12500000000E+03  0.80419002446E+02 0. -1.
</event>
<event>
 4    1  0.1599584E-001  0.1250000E+03  0.7546771E-02  0.1126479E+00
        -11   -1    0    0    0    0  0.00000000000E+00  0.00000000000E+00  0.12500000000E+03  0.12500000000E+03  0.00000000000E+00 0.  1.
         11   -1    0    0    0    0 -0.00000000000E+00 -0.00000000000E+00 -0.12500000000E+03  0.12500000000E+03  0.00000000000E+00 0. -1.
         24    1    1    2    0    0  0.58445661857E+02 -0.75638268937E+02 -0.45542208988E+01  0.12500000000E+03  0.80419002446E+02 0.  0.
        -24    1    1    2    0    0 -0.58445661857E+02  0.75638268937E+02  0.45542208988E+01  0.12500000000E+03  0.80419002446E+02 0.  0.
</event>
<event>
 4    1  0.1599584E-001  0.1250000E+03  0.7546771E-02  0.1126479E+00
        -11   -1    0    0    0    0  0.00000000000E+00  0.00000000000E+00  0.12500000000E+03  0.12500000000E+03  0.00000000000E+00 0.  1.
         11   -1    0    0    0    0 -0.00000000000E+00 -0.00000000000E+00 -0.12500000000E+03  0.12500000000E+03  0.00000000000E+00 0. -1.
         24    1    1    2    0    0 -0.54120749776E+02  0.48970818650E+02  0.61891739433E+02  0.12500000000E+03  0.80419002446E+02 0.  1.
        -24    1    1    2    0    0  0.54120749776E+02 -0.48970818650E+02 -0.61891739433E+02  0.12500000000E+03  0.80419002446E+02 0. -1.
</event>
<event>
 4    1  0.1599584E-001  0.1250000E+03  0.7546771E-02  0.1126479E+00
        -11   -1    0    0    0    0  0.00000000000E+00  0.00000000000E+00  0.12500000000E+03  0.12500000000E+03  0.00000000000E+00 0.  1.
         11   -1    0    0    0    0 -0.00000000000E+00 -0.00000000000E+00 -0.12500000000E+03  0.12500000000E+03  0.00000000000E+00 0. -1.
         24    1    1    2    0    0  0.15491784499E+02  0.65923280072E+02  0.67615899042E+02  0.12500000000E+03  0.80419002446E+02 0.  0.
        -24    1    1    2    0    0 -0.15491784499E+02 -0.65923280072E+02 -0.67615899042E+02  0.12500000000E+03  0.80419002446E+02 0. -1.
</event>
<event>
 4    1  0.1599584E-001  0.1250000E+03  0.7546771E-02  0.1126479E+00
        -11   -1    0    0    0    0  0.00000000000E+00  0.00000000000E+00  0.12500000000E+03  0.12500000000E+03  0.00000000000E+00 0.  1.
         11   -1    0    0    0    0 -0.00000000000E+00 -0.00000000000E+00 -0.12500000000E+03  0.12500000000E+03  0.00000000000E+00 0. -1.
         24    1    1    2    0    0  0.13142815957E+02 -0.43355477136E+02  0.84293256175E+02  0.12500000000E+03  0.80419002446E+02 0.  0.
        -24    1    1    2    0    0 -0.13142815957E+02  0.43355477136E+02 -0.84293256175E+02  0.12500000000E+03  0.80419002446E+02 0.  1.
</event>
<event>
 4    1  0.1599584E-001  0.1250000E+03  0.7546771E-02  0.1126479E+00
        -11   -1    0    0    0    0  0.00000000000E+00  0.00000000000E+00  0.12500000000E+03  0.12500000000E+03  0.00000000000E+00 0.  1.
         11   -1    0    0    0    0 -0.00000000000E+00 -0.00000000000E+00 -0.12500000000E+03  0.12500000000E+03  0.00000000000E+00 0. -1.
         24    1    1    2    0    0 -0.59993771601E+02  0.16366824614E+02  0.72736912684E+02  0.12500000000E+03  0.80419002446E+02 0.  1.
        -24    1    1    2    0    0  0.59993771601E+02 -0.16366824614E+02 -0.72736912684E+02  0.12500000000E+03  0.80419002446E+02 0. -1.
</event>
<event>
 4    1  0.1599584E-001  0.1250000E+03  0.7546771E-02  0.1126479E+00
        -11   -1    0    0    0    0  0.00000000000E+00  0.00000000000E+00  0.12500000000E+03  0.12500000000E+03  0.00000000000E+00 0.  1.
         11   -1    0    0    0    0 -0.00000000000E+00 -0.00000000000E+00 -0.12500000000E+03  0.12500000000E+03  0.00000000000E+00 0. -1.
         24    1    1    2    0    0  0.13356299959E+02 -0.86555373864E+02  0.38568906547E+02  0.12500000000E+03  0.80419002446E+02 0.  1.
        -24    1    1    2    0    0 -0.13356299959E+02  0.86555373864E+02 -0.38568906547E+02  0.12500000000E+03  0.80419002446E+02 0. -1.
</event>
<event>
 4    1  0.1599584E-001  0.1250000E+03  0.7546771E-02  0.1126479E+00
        -11   -1    0    0    0    0  0.00000000000E+00  0.00000000000E+00  0.12500000000E+03  0.12500000000E+03  0.00000000000E+00 0.  1.
         11   -1    0    0    0    0 -0.00000000000E+00 -0.00000000000E+00 -0.12500000000E+03  0.12500000000E+03  0.00000000000E+00 0. -1.
         24    1    1    2    0    0  0.78141672515E+02  0.51623646490E+02  0.19663727655E+02  0.12500000000E+03  0.80419002446E+02 0.  1.
        -24    1    1    2    0    0 -0.78141672515E+02 -0.51623646490E+02 -0.19663727655E+02  0.12500000000E+03  0.80419002446E+02 0. -1.
</event>
<event>
 4    1  0.1599584E-001  0.1250000E+03  0.7546771E-02  0.1126479E+00
        -11   -1    0    0    0    0  0.00000000000E+00  0.00000000000E+00  0.12500000000E+03  0.12500000000E+03  0.00000000000E+00 0.  1.
         11   -1    0    0    0    0 -0.00000000000E+00 -0.00000000000E+00 -0.12500000000E+03  0.12500000000E+03  0.00000000000E+00 0. -1.
         24    1    1    2    0    0 -0.15671664679E+02  0.87124886249E+01  0.94001465487E+02  0.12500000000E+03  0.80419002446E+02 0.  1.
        -24    1    1    2    0    0  0.15671664679E+02 -0.87124886249E+01 -0.94001465487E+02  0.12500000000E+03  0.80419002446E+02 0. -1.
</event>
<event>
 4    1  0.1599584E-001  0.1250000E+03  0.7546771E-02  0.1126479E+00
        -11   -1    0    0    0    0  0.00000000000E+00  0.00000000000E+00  0.12500000000E+03  0.12500000000E+03  0.00000000000E+00 0.  1.
         11   -1    0    0    0    0 -0.00000000000E+00 -0.00000000000E+00 -0.12500000000E+03  0.12500000000E+03  0.00000000000E+00 0. -1.
         24    1    1    2    0    0 -0.16909517294E+02  0.39994529057E+02  0.85277722273E+02  0.12500000000E+03  0.80419002446E+02 0.  1.
        -24    1    1    2    0    0  0.16909517294E+02 -0.39994529057E+02 -0.85277722273E+02  0.12500000000E+03  0.80419002446E+02 0. -1.
</event>
<event>
 4    1  0.1599584E-001  0.1250000E+03  0.7546771E-02  0.1126479E+00
        -11   -1    0    0    0    0  0.00000000000E+00  0.00000000000E+00  0.12500000000E+03  0.12500000000E+03  0.00000000000E+00 0.  1.
         11   -1    0    0    0    0 -0.00000000000E+00 -0.00000000000E+00 -0.12500000000E+03  0.12500000000E+03  0.00000000000E+00 0. -1.
         24    1    1    2    0    0 -0.60329112294E+00  0.68327625781E+02  0.66998176397E+02  0.12500000000E+03  0.80419002446E+02 0.  1.
        -24    1    1    2    0    0  0.60329112294E+00 -0.68327625781E+02 -0.66998176397E+02  0.12500000000E+03  0.80419002446E+02 0. -1.
</event>
<event>
 4    1  0.1599584E-001  0.1250000E+03  0.7546771E-02  0.1126479E+00
        -11   -1    0    0    0    0  0.00000000000E+00  0.00000000000E+00  0.12500000000E+03  0.12500000000E+03  0.00000000000E+00 0.  1.
         11   -1    0    0    0    0 -0.00000000000E+00 -0.00000000000E+00 -0.12500000000E+03  0.12500000000E+03  0.00000000000E+00 0. -1.
         24    1    1    2    0    0 -0.69720326937E+02  0.60381022161E+02  0.25514549185E+02  0.12500000000E+03  0.80419002446E+02 0.  1.
        -24    1    1    2    0    0  0.69720326937E+02 -0.60381022161E+02 -0.25514549185E+02  0.12500000000E+03  0.80419002446E+02 0. -1.
</event>
<event>
 4    1  0.1599584E-001  0.1250000E+03  0.7546771E-02  0.1126479E+00
        -11   -1    0    0    0    0  0.00000000000E+00  0.00000000000E+00  0.12500000000E+03  0.12500000000E+03  0.00000000000E+00 0.  1.
         11   -1    0    0    0    0 -0.00000000000E+00 -0.00000000000E+00 -0.12500000000E+03  0.12500000000E+03  0.00000000000E+00 0. -1.
         24    1    1    2    0    0 -0.32151004748E+02  0.12900619360E+02  0.89205778733E+02  0.12500000000E+03  0.80419002446E+02 0.  1.
        -24    1    1    2    0    0  0.32151004748E+02 -0.12900619360E+02 -0.89205778733E+02  0.12500000000E+03  0.80419002446E+02 0. -1.
</event>
<event>
 4    1  0.1599584E-001  0.1250000E+03  0.7546771E-02  0.1126479E+00
        -11   -1    0    0    0    0  0.00000000000E+00  0.00000000000E+00  0.12500000000E+03  0.12500000000E+03  0.00000000000E+00 0.  1.
         11   -1    0    0    0    0 -0.00000000000E+00 -0.00000000000E+00 -0.12500000000E+03  0.12500000000E+03  0.00000000000E+00 0. -1.
         24    1    1    2    0    0 -0.49625318027E+02  0.76509776681E+01  0.81465172909E+02  0.12500000000E+03  0.80419002446E+02 0.  1.
        -24    1    1    2    0    0  0.49625318027E+02 -0.76509776681E+01 -0.81465172909E+02  0.12500000000E+03  0.80419002446E+02 0. -1.
</event>
<event>
 4    1  0.1599584E-001  0.1250000E+03  0.7546771E-02  0.1126479E+00
        -11   -1    0    0    0    0  0.00000000000E+00  0.00000000000E+00  0.12500000000E+03  0.12500000000E+03  0.00000000000E+00 0.  1.
         11   -1    0    0    0    0 -0.00000000000E+00 -0.00000000000E+00 -0.12500000000E+03  0.12500000000E+03  0.00000000000E+00 0. -1.
         24    1    1    2    0    0  0.87968192094E+01  0.51922229988E+01  0.95149570875E+02  0.12500000000E+03  0.80419002446E+02 0.  1.
        -24    1    1    2    0    0 -0.87968192094E+01 -0.51922229988E+01 -0.95149570875E+02  0.12500000000E+03  0.80419002446E+02 0. -1.
</event>
<event>
 4    1  0.1599584E-001  0.1250000E+03  0.7546771E-02  0.1126479E+00
        -11   -1    0    0    0    0  0.00000000000E+00  0.00000000000E+00  0.12500000000E+03  0.12500000000E+03  0.00000000000E+00 0.  1.
         11   -1    0    0    0    0 -0.00000000000E+00 -0.00000000000E+00 -0.12500000000E+03  0.12500000000E+03  0.00000000000E+00 0. -1.
         24    1    1    2    0    0 -0.94479050477E+02 -0.15018876827E+02 -0.24344209757E+01  0.12500000000E+03  0.80419002446E+02 0. -1.
        -24    1    1    2    0    0  0.94479050477E+02  0.15018876827E+02  0.24344209757E+01  0.12500000000E+03  0.80419002446E+02 0.  1.
</event>
<event>
 4    1  0.1599584E-001  0.1250000E+03  0.7546771E-02  0.1126479E+00
        -11   -1    0    0    0    0  0.00000000000E+00  0.00000000000E+00  0.12500000000E+03  0.12500000000E+03  0.00000000000E+00 0.  1.
         11   -1    0    0    0    0 -0.00000000000E+00 -0.00000000000E+00 -0.12500000000E+03  0.12500000000E+03  0.00000000000E+00 0. -1.
         24    1    1    2    0    0  0.87704099012E+02 -0.38190881411E+02  0.26891707362E+01  0.12500000000E+03  0.80419002446E+02 0.  1.
        -24    1    1    2    0    0 -0.87704099012E+02  0.38190881411E+02 -0.26891707362E+01  0.12500000000E+03  0.80419002446E+02 0.  0.
</event>
<event>
 4    1  0.1599584E-001  0.1250000E+03  0.7546771E-02  0.1126479E+00
        -11   -1    0    0    0    0  0.00000000000E+00  0.00000000000E+00  0.12500000000E+03  0.12500000000E+03  0.00000000000E+00 0.  1.
         11   -1    0    0    0    0 -0.00000000000E+00 -0.00000000000E+00 -0.12500000000E+03  0.12500000000E+03  0.00000000000E+00 0. -1.
         24    1    1    2    0    0  0.25512178005E+02  0.83208964057E+02 -0.39789208583E+02  0.12500000000E+03  0.80419002446E+02 0. -1.
        -24    1    1    2    0    0 -0.25512178005E+02 -0.83208964057E+02  0.39789208583E+02  0.12500000000E+03  0.80419002446E+02 0.  1.
</event>
<event>
 4    1  0.1599584E-001  0.1250000E+03  0.7546771E-02  0.1126479E+00
        -11   -1    0    0    0    0  0.00000000000E+00  0.00000000000E+00  0.12500000000E+03  0.12500000000E+03  0.00000000000E+00 0.  1.
         11   -1    0    0    0    0 -0.00000000000E+00 -0.00000000000E+00 -0.12500000000E+03  0.12500000000E+03  0.00000000000E+00 0. -1.
         24    1    1    2    0    0 -0.49772553471E+02 -0.25407952680E+02  0.77684701887E+02  0.12500000000E+03  0.80419002446E+02 0.  1.
        -24    1    1    2    0    0  0.49772553471E+02  0.25407952680E+02 -0.77684701887E+02  0.12500000000E+03  0.80419002446E+02 0. -1.
</event>
<event>
 4    1  0.1599584E-001  0.1250000E+03  0.7546771E-02  0.1126479E+00
        -11   -1    0    0    0    0  0.00000000000E+00  0.00000000000E+00  0.12500000000E+03  0.12500000000E+03  0.00000000000E+00 0.  1.
         11   -1    0    0    0    0 -0.00000000000E+00 -0.00000000000E+00 -0.12500000000E+03  0.12500000000E+03  0.00000000000E+00 0. -1.
         24    1    1    2    0    0 -0.19836313353E+02  0.16026630035E+02  0.92235849039E+02  0.12500000000E+03  0.80419002446E+02 0.  1.
        -24    1    1    2    0    0  0.19836313353E+02 -0.16026630035E+02 -0.92235849039E+02  0.12500000000E+03  0.80419002446E+02 0. -1.
</event>
<event>
 4    1  0.1599584E-001  0.1250000E+03  0.7546771E-02  0.1126479E+00
        -11   -1    0    0    0    0  0.00000000000E+00  0.00000000000E+00  0.12500000000E+03  0.12500000000E+03  0.00000000000E+00 0.  1.
         11   -1    0    0    0    0 -0.00000000000E+00 -0.00000000000E+00 -0.12500000000E+03  0.12500000000E+03  0.00000000000E+00 0. -1.
         24    1    1    2    0    0 -0.36588712878E+02  0.60195895645E+02  0.64772712488E+02  0.12500000000E+03  0.80419002446E+02 0.  1.
        -24    1    1    2    0    0  0.36588712878E+02 -0.60195895645E+02 -0.64772712488E+02  0.12500000000E+03  0.80419002446E+02 0. -1.
</event>
<event>
 4    1  0.1599584E-001  0.1250000E+03  0.7546771E-02  0.1126479E+00
        -11   -1    0    0    0    0  0.00000000000E+00  0.00000000000E+00  0.12500000000E+03  0.12500000000E+03  0.00000000000E+00 0.  1.
         11   -1    0    0    0    0 -0.00000000000E+00 -0.00000000000E+00 -0.12500000000E+03  0.12500000000E+03  0.00000000000E+00 0. -1.
         24    1    1    2    0    0  0.55853313069E+01  0.44344141993E+02  0.84617877489E+02  0.12500000000E+03  0.80419002446E+02 0.  0.
        -24    1    1    2    0    0 -0.55853313069E+01 -0.44344141993E+02 -0.84617877489E+02  0.12500000000E+03  0.80419002446E+02 0.  0.
</event>
<event>
 4    1  0.1599584E-001  0.1250000E+03  0.7546771E-02  0.1126479E+00
        -11   -1    0    0    0    0  0.00000000000E+00  0.00000000000E+00  0.12500000000E+03  0.12500000000E+03  0.00000000000E+00 0.  1.
         11   -1    0    0    0    0 -0.00000000000E+00 -0.00000000000E+00 -0.12500000000E+03  0.12500000000E+03  0.00000000000E+00 0. -1.
         24    1    1    2    0    0  0.12232810299E+02 -0.40786082644E+00  0.94910357956E+02  0.12500000000E+03  0.80419002446E+02 0.  1.
        -24    1    1    2    0    0 -0.12232810299E+02  0.40786082644E+00 -0.94910357956E+02  0.12500000000E+03  0.80419002446E+02 0. -1.
</event>
<event>
 4    1  0.1599584E-001  0.1250000E+03  0.7546771E-02  0.1126479E+00
        -11   -1    0    0    0    0  0.00000000000E+00  0.00000000000E+00  0.12500000000E+03  0.12500000000E+03  0.00000000000E+00 0.  1.
         11   -1    0    0    0    0 -0.00000000000E+00 -0.00000000000E+00 -0.12500000000E+03  0.12500000000E+03  0.00000000000E+00 0. -1.
         24    1    1    2    0    0  0.22992146085E+02  0.23269898482E+02  0.89931402128E+02  0.12500000000E+03  0.80419002446E+02 0.  1.
        -24    1    1    2    0    0 -0.22992146085E+02 -0.23269898482E+02 -0.89931402128E+02  0.12500000000E+03  0.80419002446E+02 0. -1.
</event>
<event>
 4    1  0.1599584E-001  0.1250000E+03  0.7546771E-02  0.1126479E+00
        -11   -1    0    0    0    0  0.00000000000E+00  0.00000000000E+00  0.12500000000E+03  0.12500000000E+03  0.00000000000E+00 0.  1.
         11   -1    0    0    0    0 -0.00000000000E+00 -0.00000000000E+00 -0.12500000000E+03  0.12500000000E+03  0.00000000000E+00 0. -1.
         24    1    1    2    0    0 -0.91334363170E+02  0.27750536693E+02 -0.67620901491E+01  0.12500000000E+03  0.80419002446E+02 0.  0.
        -24    1    1    2    0    0  0.91334363170E+02 -0.27750536693E+02  0.67620901491E+01  0.12500000000E+03  0.80419002446E+02 0. -1.
</event>
<event>
 4    1  0.1599584E-001  0.1250000E+03  0.7546771E-02  0.1126479E+00
        -11   -1    0    0    0    0  0.00000000000E+00  0.00000000000E+00  0.12500000000E+03  0.12500000000E+03  0.00000000000E+00 0.  1.
         11   -1    0    0    0    0 -0.00000000000E+00 -0.00000000000E+00 -0.12500000000E+03  0.12500000000E+03  0.00000000000E+00 0. -1.
         24    1    1    2    0    0  0.88989908815E+02 -0.18329146075E+02  0.30043677851E+02  0.12500000000E+03  0.80419002446E+02 0.  1.
        -24    1    1    2    0    0 -0.88989908815E+02  0.18329146075E+02 -0.30043677851E+02  0.12500000000E+03  0.80419002446E+02 0. -1.
</event>
<event>
 4    1  0.1599584E-001  0.1250000E+03  0.7546771E-02  0.1126479E+00
        -11   -1    0    0    0    0  0.00000000000E+00  0.00000000000E+00  0.12500000000E+03  0.12500000000E+03  0.00000000000E+00 0.  1.
         11   -1    0    0    0    0 -0.00000000000E+00 -0.00000000000E+00 -0.12500000000E+03  0.12500000000E+03  0.00000000000E+00 0. -1.
         24    1    1    2    0    0 -0.18561776068E+02  0.62594077518E+01  0.93669975603E+02  0.12500000000E+03  0.80419002446E+02 0.  1.
        -24    1    1    2    0    0  0.18561776068E+02 -0.62594077518E+01 -0.93669975603E+02  0.12500000000E+03  0.80419002446E+02 0. -1.
</event>
<event>
 4    1  0.1599584E-001  0.1250000E+03  0.7546771E-02  0.1126479E+00
        -11   -1    0    0    0    0  0.00000000000E+00  0.00000000000E+00  0.12500000000E+03  0.12500000000E+03  0.00000000000E+00 0.  1.
         11   -1    0    0    0    0 -0.00000000000E+00 -0.00000000000E+00 -0.12500000000E+03  0.12500000000E+03  0.00000000000E+00 0. -1.
         24    1    1    2    0    0 -0.17897397839E+02 -0.23990489354E+02  0.90895124274E+02  0.12500000000E+03  0.80419002446E+02 0.  1.
        -24    1    1    2    0    0  0.17897397839E+02  0.23990489354E+02 -0.90895124274E+02  0.12500000000E+03  0.80419002446E+02 0. -1.
</event>
<event>
 4    1  0.1599584E-001  0.1250000E+03  0.7546771E-02  0.1126479E+00
        -11   -1    0    0    0    0  0.00000000000E+00  0.00000000000E+00  0.12500000000E+03  0.12500000000E+03  0.00000000000E+00 0.  1.
         11   -1    0    0    0    0 -0.00000000000E+00 -0.00000000000E+00 -0.12500000000E+03  0.12500000000E+03  0.00000000000E+00 0. -1.
         24    1    1    2    0    0  0.17883221676E+02  0.41737246272E+00  0.94009575195E+02  0.12500000000E+03  0.80419002446E+02 0.  1.
        -24    1    1    2    0    0 -0.17883221676E+02 -0.41737246272E+00 -0.94009575195E+02  0.12500000000E+03  0.80419002446E+02 0. -1.
</event>
<event>
 4    1  0.1599584E-001  0.1250000E+03  0.7546771E-02  0.1126479E+00
        -11   -1    0    0    0    0  0.00000000000E+00  0.00000000000E+00  0.12500000000E+03  0.12500000000E+03  0.00000000000E+00 0.  1.
         11   -1    0    0    0    0 -0.00000000000E+00 -0.00000000000E+00 -0.12500000000E+03  0.12500000000E+03  0.00000000000E+00 0. -1.
         24    1    1    2    0    0 -0.10287063320E+02 -0.26123390771E+02  0.91485129002E+02  0.12500000000E+03  0.80419002446E+02 0.  1.
        -24    1    1    2    0    0  0.10287063320E+02  0.26123390771E+02 -0.91485129002E+02  0.12500000000E+03  0.80419002446E+02 0. -1.
</event>
<event>
 4    1  0.1599584E-001  0.1250000E+03  0.7546771E-02  0.1126479E+00
        -11   -1    0    0    0    0  0.00000000000E+00  0.00000000000E+00  0.12500000000E+03  0.12500000000E+03  0.00000000000E+00 0.  1.
         11   -1    0    0    0    0 -0.00000000000E+00 -0.00000000000E+00 -0.12500000000E+03  0.12500000000E+03  0.00000000000E+00 0. -1.
         24    1    1    2    0    0  0.27858153307E+02 -0.48729383416E+01  0.91421889129E+02  0.12500000000E+03  0.80419002446E+02 0.  1.
        -24    1    1    2    0    0 -0.27858153307E+02  0.48729383416E+01 -0.91421889129E+02  0.12500000000E+03  0.80419002446E+02 0. -1.
</event>
<event>
 4    1  0.1599584E-001  0.1250000E+03  0.7546771E-02  0.1126479E+00
        -11   -1    0    0    0    0  0.00000000000E+00  0.00000000000E+00  0.12500000000E+03  0.12500000000E+03  0.00000000000E+00 0.  1.
         11   -1    0    0    0    0 -0.00000000000E+00 -0.00000000000E+00 -0.12500000000E+03  0.12500000000E+03  0.00000000000E+00 0. -1.
         24    1    1    2    0    0  0.98342126088E+01  0.29536623795E+02  0.90491215943E+02  0.12500000000E+03  0.80419002446E+02 0.  1.
        -24    1    1    2    0    0 -0.98342126088E+01 -0.29536623795E+02 -0.90491215943E+02  0.12500000000E+03  0.80419002446E+02 0. -1.
</event>
<event>
 4    1  0.1599584E-001  0.1250000E+03  0.7546771E-02  0.1126479E+00
        -11   -1    0    0    0    0  0.00000000000E+00  0.00000000000E+00  0.12500000000E+03  0.12500000000E+03  0.00000000000E+00 0.  1.
         11   -1    0    0    0    0 -0.00000000000E+00 -0.00000000000E+00 -0.12500000000E+03  0.12500000000E+03  0.00000000000E+00 0. -1.
         24    1    1    2    0    0 -0.40236598735E+01  0.86445002562E+01  0.95220096735E+02  0.12500000000E+03  0.80419002446E+02 0.  0.
        -24    1    1    2    0    0  0.40236598735E+01 -0.86445002562E+01 -0.95220096735E+02  0.12500000000E+03  0.80419002446E+02 0. -1.
</event>
<event>
 4    1  0.1599584E-001  0.1250000E+03  0.7546771E-02  0.1126479E+00
        -11   -1    0    0    0    0  0.00000000000E+00  0.00000000000E+00  0.12500000000E+03  0.12500000000E+03  0.00000000000E+00 0.  1.
         11   -1    0    0    0    0 -0.00000000000E+00 -0.00000000000E+00 -0.12500000000E+03  0.12500000000E+03  0.00000000000E+00 0. -1.
         24    1    1    2    0    0  0.13506681121E+02 -0.59394723148E+02  0.73807997350E+02  0.12500000000E+03  0.80419002446E+02 0.  1.
        -24    1    1    2    0    0 -0.13506681121E+02  0.59394723148E+02 -0.73807997350E+02  0.12500000000E+03  0.80419002446E+02 0. -1.
</event>
<event>
 4    1  0.1599584E-001  0.1250000E+03  0.7546771E-02  0.1126479E+00
        -11   -1    0    0    0    0  0.00000000000E+00  0.00000000000E+00  0.12500000000E+03  0.12500000000E+03  0.00000000000E+00 0.  1.
         11   -1    0    0    0    0 -0.00000000000E+00 -0.00000000000E+00 -0.12500000000E+03  0.12500000000E+03  0.00000000000E+00 0. -1.
         24    1    1    2    0    0 -0.84280812665E+02  0.17170770099E+02 -0.41948698625E+02  0.12500000000E+03  0.80419002446E+02 0. -1.
        -24    1    1    2    0    0  0.84280812665E+02 -0.17170770099E+02  0.41948698625E+02  0.12500000000E+03  0.80419002446E+02 0.  1.
</event>
<event>
 4    1  0.1599584E-001  0.1250000E+03  0.7546771E-02  0.1126479E+00
        -11   -1    0    0    0    0  0.00000000000E+00  0.00000000000E+00  0.12500000000E+03  0.12500000000E+03  0.00000000000E+00 0.  1.
         11   -1    0    0    0    0 -0.00000000000E+00 -0.00000000000E+00 -0.12500000000E+03  0.12500000000E+03  0.00000000000E+00 0. -1.
         24    1    1    2    0    0 -0.14789773352E+02 -0.26977097583E+02  0.90616129115E+02  0.12500000000E+03  0.80419002446E+02 0.  1.
        -24    1    1    2    0    0  0.14789773352E+02  0.26977097583E+02 -0.90616129115E+02  0.12500000000E+03  0.80419002446E+02 0. -1.
</event>
<event>
 4    1  0.1599584E-001  0.1250000E+03  0.7546771E-02  0.1126479E+00
        -11   -1    0    0    0    0  0.00000000000E+00  0.00000000000E+00  0.12500000000E+03  0.12500000000E+03  0.00000000000E+00 0.  1.
         11   -1    0    0    0    0 -0.00000000000E+00 -0.00000000000E+00 -0.12500000000E+03  0.12500000000E+03  0.00000000000E+00 0. -1.
         24    1    1    2    0    0 -0.73017443507E+02 -0.37074254035E+02  0.49515014663E+02  0.12500000000E+03  0.80419002446E+02 0.  1.
        -24    1    1    2    0    0  0.73017443507E+02  0.37074254035E+02 -0.49515014663E+02  0.12500000000E+03  0.80419002446E+02 0. -1.
</event>
<event>
 4    1  0.1599584E-001  0.1250000E+03  0.7546771E-02  0.1126479E+00
        -11   -1    0    0    0    0  0.00000000000E+00  0.00000000000E+00  0.12500000000E+03  0.12500000000E+03  0.00000000000E+00 0.  1.
         11   -1    0    0    0    0 -0.00000000000E+00 -0.00000000000E+00 -0.12500000000E+03  0.12500000000E+03  0.00000000000E+00 0. -1.
         24    1    1    2    0    0  0.14033292936E+01  0.26653570181E+02  0.91898867834E+02  0.12500000000E+03  0.80419002446E+02 0.  1.
        -24    1    1    2    0    0 -0.14033292936E+01 -0.26653570181E+02 -0.91898867834E+02  0.12500000000E+03  0.80419002446E+02 0. -1.
</event>
<event>
 4    1  0.1599584E-001  0.1250000E+03  0.7546771E-02  0.1126479E+00
        -11   -1    0    0    0    0  0.00000000000E+00  0.00000000000E+00  0.12500000000E+03  0.12500000000E+03  0.00000000000E+00 0.  1.
         11   -1    0    0    0    0 -0.00000000000E+00 -0.00000000000E+00 -0.12500000000E+03  0.12500000000E+03  0.00000000000E+00 0. -1.
         24    1    1    2    0    0 -0.49802022463E+02  0.13883397508E+02  0.80528217898E+02  0.12500000000E+03  0.80419002446E+02 0.  1.
        -24    1    1    2    0    0  0.49802022463E+02 -0.13883397508E+02 -0.80528217898E+02  0.12500000000E+03  0.80419002446E+02 0. -1.
</event>
<event>
 4    1  0.1599584E-001  0.1250000E+03  0.7546771E-02  0.1126479E+00
        -11   -1    0    0    0    0  0.00000000000E+00  0.00000000000E+00  0.12500000000E+03  0.12500000000E+03  0.00000000000E+00 0.  1.
         11   -1    0    0    0    0 -0.00000000000E+00 -0.00000000000E+00 -0.12500000000E+03  0.12500000000E+03  0.00000000000E+00 0. -1.
         24    1    1    2    0    0  0.13508732874E+01 -0.12603793909E+02  0.94853063030E+02  0.12500000000E+03  0.80419002446E+02 0.  1.
        -24    1    1    2    0    0 -0.13508732874E+01  0.12603793909E+02 -0.94853063030E+02  0.12500000000E+03  0.80419002446E+02 0. -1.
</event>
<event>
 4    1  0.1599584E-001  0.1250000E+03  0.7546771E-02  0.1126479E+00
        -11   -1    0    0    0    0  0.00000000000E+00  0.00000000000E+00  0.12500000000E+03  0.12500000000E+03  0.00000000000E+00 0.  1.
         11   -1    0    0    0    0 -0.00000000000E+00 -0.00000000000E+00 -0.12500000000E+03  0.12500000000E+03  0.00000000000E+00 0. -1.
         24    1    1    2    0    0  0.23713976394E+02  0.31827013844E+02  0.87077394076E+02  0.12500000000E+03  0.80419002446E+02 0.  1.
        -24    1    1    2    0    0 -0.23713976394E+02 -0.31827013844E+02 -0.87077394076E+02  0.12500000000E+03  0.80419002446E+02 0. -1.
</event>
<event>
 4    1  0.1599584E-001  0.1250000E+03  0.7546771E-02  0.1126479E+00
        -11   -1    0    0    0    0  0.00000000000E+00  0.00000000000E+00  0.12500000000E+03  0.12500000000E+03  0.00000000000E+00 0.  1.
         11   -1    0    0    0    0 -0.00000000000E+00 -0.00000000000E+00 -0.12500000000E+03  0.12500000000E+03  0.00000000000E+00 0. -1.
         24    1    1    2    0    0  0.23101341292E+02 -0.29258823268E+01  0.92819994014E+02  0.12500000000E+03  0.80419002446E+02 0.  1.
        -24    1    1    2    0    0 -0.23101341292E+02  0.29258823268E+01 -0.92819994014E+02  0.12500000000E+03  0.80419002446E+02 0. -1.
</event>
<event>
 4    1  0.1599584E-001  0.1250000E+03  0.7546771E-02  0.1126479E+00
        -11   -1    0    0    0    0  0.00000000000E+00  0.00000000000E+00  0.12500000000E+03  0.12500000000E+03  0.00000000000E+00 0.  1.
         11   -1    0    0    0    0 -0.00000000000E+00 -0.00000000000E+00 -0.12500000000E+03  0.12500000000E+03  0.00000000000E+00 0. -1.
         24    1    1    2    0    0 -0.35670266948E+02 -0.40765350301E+02  0.78889811233E+02  0.12500000000E+03  0.80419002446E+02 0.  1.
        -24    1    1    2    0    0  0.35670266948E+02  0.40765350301E+02 -0.78889811233E+02  0.12500000000E+03  0.80419002446E+02 0. -1.
</event>
<event>
 4    1  0.1599584E-001  0.1250000E+03  0.7546771E-02  0.1126479E+00
        -11   -1    0    0    0    0  0.00000000000E+00  0.00000000000E+00  0.12500000000E+03  0.12500000000E+03  0.00000000000E+00 0.  1.
         11   -1    0    0    0    0 -0.00000000000E+00 -0.00000000000E+00 -0.12500000000E+03  0.12500000000E+03  0.00000000000E+00 0. -1.
         24    1    1    2    0    0  0.27684277533E+02 -0.33308236099E+02  0.85334203172E+02  0.12500000000E+03  0.80419002446E+02 0.  1.
        -24    1    1    2    0    0 -0.27684277533E+02  0.33308236099E+02 -0.85334203172E+02  0.12500000000E+03  0.80419002446E+02 0. -1.
</event>
<event>
 4    1  0.1599584E-001  0.1250000E+03  0.7546771E-02  0.1126479E+00
        -11   -1    0    0    0    0  0.00000000000E+00  0.00000000000E+00  0.12500000000E+03  0.12500000000E+03  0.00000000000E+00 0.  1.
         11   -1    0    0    0    0 -0.00000000000E+00 -0.00000000000E+00 -0.12500000000E+03  0.12500000000E+03  0.00000000000E+00 0. -1.
         24    1    1    2    0    0  0.42787296171E+02  0.16358827433E+02  0.84020355254E+02  0.12500000000E+03  0.80419002446E+02 0.  1.
        -24    1    1    2    0    0 -0.42787296171E+02 -0.16358827433E+02 -0.84020355254E+02  0.12500000000E+03  0.80419002446E+02 0. -1.
</event>
<event>
 4    1  0.1599584E-001  0.1250000E+03  0.7546771E-02  0.1126479E+00
        -11   -1    0    0    0    0  0.00000000000E+00  0.00000000000E+00  0.12500000000E+03  0.12500000000E+03  0.00000000000E+00 0.  1.
         11   -1    0    0    0    0 -0.00000000000E+00 -0.00000000000E+00 -0.12500000000E+03  0.12500000000E+03  0.00000000000E+00 0. -1.
         24    1    1    2    0    0  0.17738207243E+01 -0.68920949448E+02 -0.66366711030E+02  0.12500000000E+03  0.80419002446E+02 0. -1.
        -24    1    1    2    0    0 -0.17738207243E+01  0.68920949448E+02  0.66366711030E+02  0.12500000000E+03  0.80419002446E+02 0.  1.
</event>
<event>
 4    1  0.1599584E-001  0.1250000E+03  0.7546771E-02  0.1126479E+00
        -11   -1    0    0    0    0  0.00000000000E+00  0.00000000000E+00  0.12500000000E+03  0.12500000000E+03  0.00000000000E+00 0.  1.
         11   -1    0    0    0    0 -0.00000000000E+00 -0.00000000000E+00 -0.12500000000E+03  0.12500000000E+03  0.00000000000E+00 0. -1.
         24    1    1    2    0    0 -0.53737012202E+01 -0.87926765137E+02  0.37387047936E+02  0.12500000000E+03  0.80419002446E+02 0.  1.
        -24    1    1    2    0    0  0.53737012202E+01  0.87926765137E+02 -0.37387047936E+02  0.12500000000E+03  0.80419002446E+02 0. -1.
</event>
<event>
 4    1  0.1599584E-001  0.1250000E+03  0.7546771E-02  0.1126479E+00
        -11   -1    0    0    0    0  0.00000000000E+00  0.00000000000E+00  0.12500000000E+03  0.12500000000E+03  0.00000000000E+00 0.  1.
         11   -1    0    0    0    0 -0.00000000000E+00 -0.00000000000E+00 -0.12500000000E+03  0.12500000000E+03  0.00000000000E+00 0. -1.
         24    1    1    2    0    0  0.27242155747E+01  0.16898594673E+02  0.94153067891E+02  0.12500000000E+03  0.80419002446E+02 0.  1.
        -24    1    1    2    0    0 -0.27242155747E+01 -0.16898594673E+02 -0.94153067891E+02  0.12500000000E+03  0.80419002446E+02 0.  0.
</event>
<event>
 4    1  0.1599584E-001  0.1250000E+03  0.7546771E-02  0.1126479E+00
        -11   -1    0    0    0    0  0.00000000000E+00  0.00000000000E+00  0.12500000000E+03  0.12500000000E+03  0.00000000000E+00 0.  1.
         11   -1    0    0    0    0 -0.00000000000E+00 -0.00000000000E+00 -0.12500000000E+03  0.12500000000E+03  0.00000000000E+00 0. -1.
         24    1    1    2    0    0 -0.36900446697E+02 -0.86459760287E+02 -0.17912312255E+02  0.12500000000E+03  0.80419002446E+02 0.  1.
        -24    1    1    2    0    0  0.36900446697E+02  0.86459760287E+02  0.17912312255E+02  0.12500000000E+03  0.80419002446E+02 0. -1.
</event>
<event>
 4    1  0.1599584E-001  0.1250000E+03  0.7546771E-02  0.1126479E+00
        -11   -1    0    0    0    0  0.00000000000E+00  0.00000000000E+00  0.12500000000E+03  0.12500000000E+03  0.00000000000E+00 0.  1.
         11   -1    0    0    0    0 -0.00000000000E+00 -0.00000000000E+00 -0.12500000000E+03  0.12500000000E+03  0.00000000000E+00 0. -1.
         24    1    1    2    0    0 -0.40896598656E+02  0.22271258100E+02  0.83601694520E+02  0.12500000000E+03  0.80419002446E+02 0.  1.
        -24    1    1    2    0    0  0.40896598656E+02 -0.22271258100E+02 -0.83601694520E+02  0.12500000000E+03  0.80419002446E+02 0. -1.
</event>
<event>
 4    1  0.1599584E-001  0.1250000E+03  0.7546771E-02  0.1126479E+00
        -11   -1    0    0    0    0  0.00000000000E+00  0.00000000000E+00  0.12500000000E+03  0.12500000000E+03  0.00000000000E+00 0.  1.
         11   -1    0    0    0    0 -0.00000000000E+00 -0.00000000000E+00 -0.12500000000E+03  0.12500000000E+03  0.00000000000E+00 0. -1.
         24    1    1    2    0    0 -0.79260641324E+02 -0.45684436921E+02  0.28079654659E+02  0.12500000000E+03  0.80419002446E+02 0.  0.
        -24    1    1    2    0    0  0.79260641324E+02  0.45684436921E+02 -0.28079654659E+02  0.12500000000E+03  0.80419002446E+02 0.  0.
</event>
<event>
 4    1  0.1599584E-001  0.1250000E+03  0.7546771E-02  0.1126479E+00
        -11   -1    0    0    0    0  0.00000000000E+00  0.00000000000E+00  0.12500000000E+03  0.12500000000E+03  0.00000000000E+00 0.  1.
         11   -1    0    0    0    0 -0.00000000000E+00 -0.00000000000E+00 -0.12500000000E+03  0.12500000000E+03  0.00000000000E+00 0. -1.
         24    1    1    2    0    0  0.27489879604E+02  0.19624685893E+02  0.89537490855E+02  0.12500000000E+03  0.80419002446E+02 0.  1.
        -24    1    1    2    0    0 -0.27489879604E+02 -0.19624685893E+02 -0.89537490855E+02  0.12500000000E+03  0.80419002446E+02 0. -1.
</event>
<event>
 4    1  0.1599584E-001  0.1250000E+03  0.7546771E-02  0.1126479E+00
        -11   -1    0    0    0    0  0.00000000000E+00  0.00000000000E+00  0.12500000000E+03  0.12500000000E+03  0.00000000000E+00 0.  1.
         11   -1    0    0    0    0 -0.00000000000E+00 -0.00000000000E+00 -0.12500000000E+03  0.12500000000E+03  0.00000000000E+00 0. -1.
         24    1    1    2    0    0 -0.28254358397E+02  0.57927342383E+02  0.70738237762E+02  0.12500000000E+03  0.80419002446E+02 0.  1.
        -24    1    1    2    0    0  0.28254358397E+02 -0.57927342383E+02 -0.70738237762E+02  0.12500000000E+03  0.80419002446E+02 0. -1.
</event>
<event>
 4    1  0.1599584E-001  0.1250000E+03  0.7546771E-02  0.1126479E+00
        -11   -1    0    0    0    0  0.00000000000E+00  0.00000000000E+00  0.12500000000E+03  0.12500000000E+03  0.00000000000E+00 0.  1.
         11   -1    0    0    0    0 -0.00000000000E+00 -0.00000000000E+00 -0.12500000000E+03  0.12500000000E+03  0.00000000000E+00 0. -1.
         24    1    1    2    0    0  0.50116000407E+02 -0.30569891256E+02  0.75575474180E+02  0.12500000000E+03  0.80419002446E+02 0.  1.
        -24    1    1    2    0    0 -0.50116000407E+02  0.30569891256E+02 -0.75575474180E+02  0.12500000000E+03  0.80419002446E+02 0. -1.
</event>
<event>
 4    1  0.1599584E-001  0.1250000E+03  0.7546771E-02  0.1126479E+00
        -11   -1    0    0    0    0  0.00000000000E+00  0.00000000000E+00  0.12500000000E+03  0.12500000000E+03  0.00000000000E+00 0.  1.
         11   -1    0    0    0    0 -0.00000000000E+00 -0.00000000000E+00 -0.12500000000E+03  0.12500000000E+03  0.00000000000E+00 0. -1.
         24    1    1    2    0    0  0.24310544899E+02  0.76823544866E+02  0.51622905832E+02  0.12500000000E+03  0.80419002446E+02 0.  1.
        -24    1    1    2    0    0 -0.24310544899E+02 -0.76823544866E+02 -0.51622905832E+02  0.12500000000E+03  0.80419002446E+02 0. -1.
</event>
<event>
 4    1  0.1599584E-001  0.1250000E+03  0.7546771E-02  0.1126479E+00
        -11   -1    0    0    0    0  0.00000000000E+00  0.00000000000E+00  0.12500000000E+03  0.12500000000E+03  0.00000000000E+00 0.  1.
         11   -1    0    0    0    0 -0.00000000000E+00 -0.00000000000E+00 -0.12500000000E+03  0.12500000000E+03  0.00000000000E+00 0. -1.
         24    1    1    2    0    0  0.41192881112E+02  0.15118468723E+02  0.85043297765E+02  0.12500000000E+03  0.80419002446E+02 0.  1.
        -24    1    1    2    0    0 -0.41192881112E+02 -0.15118468723E+02 -0.85043297765E+02  0.12500000000E+03  0.80419002446E+02 0. -1.
</event>
<event>
 4    1  0.1599584E-001  0.1250000E+03  0.7546771E-02  0.1126479E+00
        -11   -1    0    0    0    0  0.00000000000E+00  0.00000000000E+00  0.12500000000E+03  0.12500000000E+03  0.00000000000E+00 0.  1.
         11   -1    0    0    0    0 -0.00000000000E+00 -0.00000000000E+00 -0.12500000000E+03  0.12500000000E+03  0.00000000000E+00 0. -1.
         24    1    1    2    0    0 -0.14163035788E+02 -0.15560932745E+01  0.94629651995E+02  0.12500000000E+03  0.80419002446E+02 0.  1.
        -24    1    1    2    0    0  0.14163035788E+02  0.15560932745E+01 -0.94629651995E+02  0.12500000000E+03  0.80419002446E+02 0.  0.
</event>
<event>
 4    1  0.1599584E-001  0.1250000E+03  0.7546771E-02  0.1126479E+00
        -11   -1    0    0    0    0  0.00000000000E+00  0.00000000000E+00  0.12500000000E+03  0.12500000000E+03  0.00000000000E+00 0.  1.
         11   -1    0    0    0    0 -0.00000000000E+00 -0.00000000000E+00 -0.12500000000E+03  0.12500000000E+03  0.00000000000E+00 0. -1.
         24    1    1    2    0    0 -0.17520520332E+02 -0.24368249240E+01  0.94047207812E+02  0.12500000000E+03  0.80419002446E+02 0.  1.
        -24    1    1    2    0    0  0.17520520332E+02  0.24368249240E+01 -0.94047207812E+02  0.12500000000E+03  0.80419002446E+02 0. -1.
</event>
<event>
 4    1  0.1599584E-001  0.1250000E+03  0.7546771E-02  0.1126479E+00
        -11   -1    0    0    0    0  0.00000000000E+00  0.00000000000E+00  0.12500000000E+03  0.12500000000E+03  0.00000000000E+00 0.  1.
         11   -1    0    0    0    0 -0.00000000000E+00 -0.00000000000E+00 -0.12500000000E+03  0.12500000000E+03  0.00000000000E+00 0. -1.
         24    1    1    2    0    0  0.85415910671E+01  0.95057935238E-01  0.95314302346E+02  0.12500000000E+03  0.80419002446E+02 0.  0.
        -24    1    1    2    0    0 -0.85415910671E+01 -0.95057935238E-01 -0.95314302346E+02  0.12500000000E+03  0.80419002446E+02 0. -1.
</event>
<event>
 4    1  0.1599584E-001  0.1250000E+03  0.7546771E-02  0.1126479E+00
        -11   -1    0    0    0    0  0.00000000000E+00  0.00000000000E+00  0.12500000000E+03  0.12500000000E+03  0.00000000000E+00 0.  1.
         11   -1    0    0    0    0 -0.00000000000E+00 -0.00000000000E+00 -0.12500000000E+03  0.12500000000E+03  0.00000000000E+00 0. -1.
         24    1    1    2    0    0  0.36887832940E+02  0.54743608817E+02  0.69283541482E+02  0.12500000000E+03  0.80419002446E+02 0.  0.
        -24    1    1    2    0    0 -0.36887832940E+02 -0.54743608817E+02 -0.69283541482E+02  0.12500000000E+03  0.80419002446E+02 0.  1.
</event>
<event>
 4    1  0.1599584E-001  0.1250000E+03  0.7546771E-02  0.1126479E+00
        -11   -1    0    0    0    0  0.00000000000E+00  0.00000000000E+00  0.12500000000E+03  0.12500000000E+03  0.00000000000E+00 0.  1.
         11   -1    0    0    0    0 -0.00000000000E+00 -0.00000000000E+00 -0.12500000000E+03  0.12500000000E+03  0.00000000000E+00 0. -1.
         24    1    1    2    0    0  0.45255687464E+01  0.12279255002E+02  0.94797274063E+02  0.12500000000E+03  0.80419002446E+02 0.  1.
        -24    1    1    2    0    0 -0.45255687464E+01 -0.12279255002E+02 -0.94797274063E+02  0.12500000000E+03  0.80419002446E+02 0. -1.
</event>
<event>
 4    1  0.1599584E-001  0.1250000E+03  0.7546771E-02  0.1126479E+00
        -11   -1    0    0    0    0  0.00000000000E+00  0.00000000000E+00  0.12500000000E+03  0.12500000000E+03  0.00000000000E+00 0.  1.
         11   -1    0    0    0    0 -0.00000000000E+00 -0.00000000000E+00 -0.12500000000E+03  0.12500000000E+03  0.00000000000E+00 0. -1.
         24    1    1    2    0    0 -0.71535243829E+02  0.15623105333E+01  0.63545669575E+02  0.12500000000E+03  0.80419002446E+02 0.  1.
        -24    1    1    2    0    0  0.71535243829E+02 -0.15623105333E+01 -0.63545669575E+02  0.12500000000E+03  0.80419002446E+02 0. -1.
</event>
<event>
 4    1  0.1599584E-001  0.1250000E+03  0.7546771E-02  0.1126479E+00
        -11   -1    0    0    0    0  0.00000000000E+00  0.00000000000E+00  0.12500000000E+03  0.12500000000E+03  0.00000000000E+00 0.  1.
         11   -1    0    0    0    0 -0.00000000000E+00 -0.00000000000E+00 -0.12500000000E+03  0.12500000000E+03  0.00000000000E+00 0. -1.
         24    1    1    2    0    0 -0.22244233565E+02 -0.31450361471E+02  0.87600530147E+02  0.12500000000E+03  0.80419002446E+02 0.  1.
        -24    1    1    2    0    0  0.22244233565E+02  0.31450361471E+02 -0.87600530147E+02  0.12500000000E+03  0.80419002446E+02 0. -1.
</event>
<event>
 4    1  0.1599584E-001  0.1250000E+03  0.7546771E-02  0.1126479E+00
        -11   -1    0    0    0    0  0.00000000000E+00  0.00000000000E+00  0.12500000000E+03  0.12500000000E+03  0.00000000000E+00 0.  1.
         11   -1    0    0    0    0 -0.00000000000E+00 -0.00000000000E+00 -0.12500000000E+03  0.12500000000E+03  0.00000000000E+00 0. -1.
         24    1    1    2    0    0  0.44005692549E+02  0.27936979757E+02  0.80254646164E+02  0.12500000000E+03  0.80419002446E+02 0.  0.
        -24    1    1    2    0    0 -0.44005692549E+02 -0.27936979757E+02 -0.80254646164E+02  0.12500000000E+03  0.80419002446E+02 0.  1.
</event>
<event>
 4    1  0.1599584E-001  0.1250000E+03  0.7546771E-02  0.1126479E+00
        -11   -1    0    0    0    0  0.00000000000E+00  0.00000000000E+00  0.12500000000E+03  0.12500000000E+03  0.00000000000E+00 0.  1.
         11   -1    0    0    0    0 -0.00000000000E+00 -0.00000000000E+00 -0.12500000000E+03  0.12500000000E+03  0.00000000000E+00 0. -1.
         24    1    1    2    0    0 -0.37725030479E+02 -0.57166719617E+02  0.66832419448E+02  0.12500000000E+03  0.80419002446E+02 0.  1.
        -24    1    1    2    0    0  0.37725030479E+02  0.57166719617E+02 -0.66832419448E+02  0.12500000000E+03  0.80419002446E+02 0. -1.
</event>
<event>
 4    1  0.1599584E-001  0.1250000E+03  0.7546771E-02  0.1126479E+00
        -11   -1    0    0    0    0  0.00000000000E+00  0.00000000000E+00  0.12500000000E+03  0.12500000000E+03  0.00000000000E+00 0.  1.
         11   -1    0    0    0    0 -0.00000000000E+00 -0.00000000000E+00 -0.12500000000E+03  0.12500000000E+03  0.00000000000E+00 0. -1.
         24    1    1    2    0    0 -0.46684532552E+02 -0.26059880830E+02  0.79367632428E+02  0.12500000000E+03  0.80419002446E+02 0. -1.
        -24    1    1    2    0    0  0.46684532552E+02  0.26059880830E+02 -0.79367632428E+02  0.12500000000E+03  0.80419002446E+02 0.  0.
</event>
<event>
 4    1  0.1599584E-001  0.1250000E+03  0.7546771E-02  0.1126479E+00
        -11   -1    0    0    0    0  0.00000000000E+00  0.00000000000E+00  0.12500000000E+03  0.12500000000E+03  0.00000000000E+00 0.  1.
         11   -1    0    0    0    0 -0.00000000000E+00 -0.00000000000E+00 -0.12500000000E+03  0.12500000000E+03  0.00000000000E+00 0. -1.
         24    1    1    2    0    0 -0.17086119278E+02 -0.45031425841E+02  0.82692316816E+02  0.12500000000E+03  0.80419002446E+02 0.  1.
        -24    1    1    2    0    0  0.17086119278E+02  0.45031425841E+02 -0.82692316816E+02  0.12500000000E+03  0.80419002446E+02 0. -1.
</event>
<event>
 4    1  0.1599584E-001  0.1250000E+03  0.7546771E-02  0.1126479E+00
        -11   -1    0    0    0    0  0.00000000000E+00  0.00000000000E+00  0.12500000000E+03  0.12500000000E+03  0.00000000000E+00 0.  1.
         11   -1    0    0    0    0 -0.00000000000E+00 -0.00000000000E+00 -0.12500000000E+03  0.12500000000E+03  0.00000000000E+00 0. -1.
         24    1    1    2    0    0  0.78666173287E+02 -0.26425726238E+02  0.47656040738E+02  0.12500000000E+03  0.80419002446E+02 0.  1.
        -24    1    1    2    0    0 -0.78666173287E+02  0.26425726238E+02 -0.47656040738E+02  0.12500000000E+03  0.80419002446E+02 0. -1.
</event>
<event>
 4    1  0.1599584E-001  0.1250000E+03  0.7546771E-02  0.1126479E+00
        -11   -1    0    0    0    0  0.00000000000E+00  0.00000000000E+00  0.12500000000E+03  0.12500000000E+03  0.00000000000E+00 0.  1.
         11   -1    0    0    0    0 -0.00000000000E+00 -0.00000000000E+00 -0.12500000000E+03  0.12500000000E+03  0.00000000000E+00 0. -1.
         24    1    1    2    0    0 -0.15604394440E+02 -0.17839554147E+02  0.92714816656E+02  0.12500000000E+03  0.80419002446E+02 0.  1.
        -24    1    1    2    0    0  0.15604394440E+02  0.17839554147E+02 -0.92714816656E+02  0.12500000000E+03  0.80419002446E+02 0.  0.
</event>
<event>
 4    1  0.1599584E-001  0.1250000E+03  0.7546771E-02  0.1126479E+00
        -11   -1    0    0    0    0  0.00000000000E+00  0.00000000000E+00  0.12500000000E+03  0.12500000000E+03  0.00000000000E+00 0.  1.
         11   -1    0    0    0    0 -0.00000000000E+00 -0.00000000000E+00 -0.12500000000E+03  0.12500000000E+03  0.00000000000E+00 0. -1.
         24    1    1    2    0    0 -0.24292936811E+01 -0.15415900796E+02  0.94415213713E+02  0.12500000000E+03  0.80419002446E+02 0.  0.
        -24    1    1    2    0    0  0.24292936811E+01  0.15415900796E+02 -0.94415213713E+02  0.12500000000E+03  0.80419002446E+02 0. -1.
</event>
<event>
 4    1  0.1599584E-001  0.1250000E+03  0.7546771E-02  0.1126479E+00
        -11   -1    0    0    0    0  0.00000000000E+00  0.00000000000E+00  0.12500000000E+03  0.12500000000E+03  0.00000000000E+00 0.  1.
         11   -1    0    0    0    0 -0.00000000000E+00 -0.00000000000E+00 -0.12500000000E+03  0.12500000000E+03  0.00000000000E+00 0. -1.
         24    1    1    2    0    0  0.20735818109E+02 -0.78178578245E+02  0.51146063353E+02  0.12500000000E+03  0.80419002446E+02 0.  1.
        -24    1    1    2    0    0 -0.20735818109E+02  0.78178578245E+02 -0.51146063353E+02  0.12500000000E+03  0.80419002446E+02 0. -1.
</event>
<event>
 4    1  0.1599584E-001  0.1250000E+03  0.7546771E-02  0.1126479E+00
        -11   -1    0    0    0    0  0.00000000000E+00  0.00000000000E+00  0.12500000000E+03  0.12500000000E+03  0.00000000000E+00 0.  1.
         11   -1    0    0    0    0 -0.00000000000E+00 -0.00000000000E+00 -0.12500000000E+03  0.12500000000E+03  0.00000000000E+00 0. -1.
         24    1    1    2    0    0  0.14416906713E+01 -0.39412267995E+02  0.87191620613E+02  0.12500000000E+03  0.80419002446E+02 0.  1.
        -24    1    1    2    0    0 -0.14416906713E+01  0.39412267995E+02 -0.87191620613E+02  0.12500000000E+03  0.80419002446E+02 0. -1.
</event>
<event>
 4    1  0.1599584E-001  0.1250000E+03  0.7546771E-02  0.1126479E+00
        -11   -1    0    0    0    0  0.00000000000E+00  0.00000000000E+00  0.12500000000E+03  0.12500000000E+03  0.00000000000E+00 0.  1.
         11   -1    0    0    0    0 -0.00000000000E+00 -0.00000000000E+00 -0.12500000000E+03  0.12500000000E+03  0.00000000000E+00 0. -1.
         24    1    1    2    0    0  0.33183841049E+02  0.14510838033E+02  0.88577944876E+02  0.12500000000E+03  0.80419002446E+02 0.  1.
        -24    1    1    2    0    0 -0.33183841049E+02 -0.14510838033E+02 -0.88577944876E+02  0.12500000000E+03  0.80419002446E+02 0. -1.
</event>
<event>
 4    1  0.1599584E-001  0.1250000E+03  0.7546771E-02  0.1126479E+00
        -11   -1    0    0    0    0  0.00000000000E+00  0.00000000000E+00  0.12500000000E+03  0.12500000000E+03  0.00000000000E+00 0.  1.
         11   -1    0    0    0    0 -0.00000000000E+00 -0.00000000000E+00 -0.12500000000E+03  0.12500000000E+03  0.00000000000E+00 0. -1.
         24    1    1    2    0    0 -0.15913708690E+02  0.38123131464E+02 -0.86320129569E+02  0.12500000000E+03  0.80419002446E+02 0. -1.
        -24    1    1    2    0    0  0.15913708690E+02 -0.38123131464E+02  0.86320129569E+02  0.12500000000E+03  0.80419002446E+02 0.  0.
</event>
<event>
 4    1  0.1599584E-001  0.1250000E+03  0.7546771E-02  0.1126479E+00
        -11   -1    0    0    0    0  0.00000000000E+00  0.00000000000E+00  0.12500000000E+03  0.12500000000E+03  0.00000000000E+00 0.  1.
         11   -1    0    0    0    0 -0.00000000000E+00 -0.00000000000E+00 -0.12500000000E+03  0.12500000000E+03  0.00000000000E+00 0. -1.
         24    1    1    2    0    0  0.50713033443E+02 -0.82380517951E+01  0.80734792917E+02  0.12500000000E+03  0.80419002446E+02 0. -1.
        -24    1    1    2    0    0 -0.50713033443E+02  0.82380517951E+01 -0.80734792917E+02  0.12500000000E+03  0.80419002446E+02 0. -1.
</event>
<event>
 4    1  0.1599584E-001  0.1250000E+03  0.7546771E-02  0.1126479E+00
        -11   -1    0    0    0    0  0.00000000000E+00  0.00000000000E+00  0.12500000000E+03  0.12500000000E+03  0.00000000000E+00 0.  1.
         11   -1    0    0    0    0 -0.00000000000E+00 -0.00000000000E+00 -0.12500000000E+03  0.12500000000E+03  0.00000000000E+00 0. -1.
         24    1    1    2    0    0 -0.91413706976E+01 -0.37733636401E+02  0.87466519717E+02  0.12500000000E+03  0.80419002446E+02 0.  1.
        -24    1    1    2    0    0  0.91413706976E+01  0.37733636401E+02 -0.87466519717E+02  0.12500000000E+03  0.80419002446E+02 0. -1.
</event>
<event>
 4    1  0.1599584E-001  0.1250000E+03  0.7546771E-02  0.1126479E+00
        -11   -1    0    0    0    0  0.00000000000E+00  0.00000000000E+00  0.12500000000E+03  0.12500000000E+03  0.00000000000E+00 0.  1.
         11   -1    0    0    0    0 -0.00000000000E+00 -0.00000000000E+00 -0.12500000000E+03  0.12500000000E+03  0.00000000000E+00 0. -1.
         24    1    1    2    0    0  0.90697772686E+01  0.76808958962E+02  0.56355186178E+02  0.12500000000E+03  0.80419002446E+02 0.  1.
        -24    1    1    2    0    0 -0.90697772686E+01 -0.76808958962E+02 -0.56355186178E+02  0.12500000000E+03  0.80419002446E+02 0. -1.
</event>
<event>
 4    1  0.1599584E-001  0.1250000E+03  0.7546771E-02  0.1126479E+00
        -11   -1    0    0    0    0  0.00000000000E+00  0.00000000000E+00  0.12500000000E+03  0.12500000000E+03  0.00000000000E+00 0.  1.
         11   -1    0    0    0    0 -0.00000000000E+00 -0.00000000000E+00 -0.12500000000E+03  0.12500000000E+03  0.00000000000E+00 0. -1.
         24    1    1    2    0    0 -0.10668760337E+02  0.21310077342E+02  0.92681401598E+02  0.12500000000E+03  0.80419002446E+02 0.  0.
        -24    1    1    2    0    0  0.10668760337E+02 -0.21310077342E+02 -0.92681401598E+02  0.12500000000E+03  0.80419002446E+02 0. -1.
</event>
<event>
 4    1  0.1599584E-001  0.1250000E+03  0.7546771E-02  0.1126479E+00
        -11   -1    0    0    0    0  0.00000000000E+00  0.00000000000E+00  0.12500000000E+03  0.12500000000E+03  0.00000000000E+00 0.  1.
         11   -1    0    0    0    0 -0.00000000000E+00 -0.00000000000E+00 -0.12500000000E+03  0.12500000000E+03  0.00000000000E+00 0. -1.
         24    1    1    2    0    0 -0.57108143833E+02  0.91298181836E+01  0.76243625134E+02  0.12500000000E+03  0.80419002446E+02 0.  1.
        -24    1    1    2    0    0  0.57108143833E+02 -0.91298181836E+01 -0.76243625134E+02  0.12500000000E+03  0.80419002446E+02 0. -1.
</event>
<event>
 4    1  0.1599584E-001  0.1250000E+03  0.7546771E-02  0.1126479E+00
        -11   -1    0    0    0    0  0.00000000000E+00  0.00000000000E+00  0.12500000000E+03  0.12500000000E+03  0.00000000000E+00 0.  1.
         11   -1    0    0    0    0 -0.00000000000E+00 -0.00000000000E+00 -0.12500000000E+03  0.12500000000E+03  0.00000000000E+00 0. -1.
         24    1    1    2    0    0  0.32438793236E+02  0.84859244837E+02  0.30073531631E+02  0.12500000000E+03  0.80419002446E+02 0.  1.
        -24    1    1    2    0    0 -0.32438793236E+02 -0.84859244837E+02 -0.30073531631E+02  0.12500000000E+03  0.80419002446E+02 0. -1.
</event>
<event>
 4    1  0.1599584E-001  0.1250000E+03  0.7546771E-02  0.1126479E+00
        -11   -1    0    0    0    0  0.00000000000E+00  0.00000000000E+00  0.12500000000E+03  0.12500000000E+03  0.00000000000E+00 0.  1.
         11   -1    0    0    0    0 -0.00000000000E+00 -0.00000000000E+00 -0.12500000000E+03  0.12500000000E+03  0.00000000000E+00 0. -1.
         24    1    1    2    0    0 -0.61512444045E+01 -0.54977615417E+02  0.78085901679E+02  0.12500000000E+03  0.80419002446E+02 0.  0.
        -24    1    1    2    0    0  0.61512444045E+01  0.54977615417E+02 -0.78085901679E+02  0.12500000000E+03  0.80419002446E+02 0.  1.
</event>
<event>
 4    1  0.1599584E-001  0.1250000E+03  0.7546771E-02  0.1126479E+00
        -11   -1    0    0    0    0  0.00000000000E+00  0.00000000000E+00  0.12500000000E+03  0.12500000000E+03  0.00000000000E+00 0.  1.
         11   -1    0    0    0    0 -0.00000000000E+00 -0.00000000000E+00 -0.12500000000E+03  0.12500000000E+03  0.00000000000E+00 0. -1.
         24    1    1    2    0    0  0.71633212123E+00  0.76963052769E+02 -0.56867912062E+02  0.12500000000E+03  0.80419002446E+02 0. -1.
        -24    1    1    2    0    0 -0.71633212123E+00 -0.76963052769E+02  0.56867912062E+02  0.12500000000E+03  0.80419002446E+02 0.  1.
</event>
<event>
 4    1  0.1599584E-001  0.1250000E+03  0.7546771E-02  0.1126479E+00
        -11   -1    0    0    0    0  0.00000000000E+00  0.00000000000E+00  0.12500000000E+03  0.12500000000E+03  0.00000000000E+00 0.  1.
         11   -1    0    0    0    0 -0.00000000000E+00 -0.00000000000E+00 -0.12500000000E+03  0.12500000000E+03  0.00000000000E+00 0. -1.
         24    1    1    2    0    0 -0.11730580094E+02 -0.28022670239E+01  0.94933265170E+02  0.12500000000E+03  0.80419002446E+02 0.  0.
        -24    1    1    2    0    0  0.11730580094E+02  0.28022670239E+01 -0.94933265170E+02  0.12500000000E+03  0.80419002446E+02 0. -1.
</event>
<event>
 4    1  0.1599584E-001  0.1250000E+03  0.7546771E-02  0.1126479E+00
        -11   -1    0    0    0    0  0.00000000000E+00  0.00000000000E+00  0.12500000000E+03  0.12500000000E+03  0.00000000000E+00 0. -1.
         11   -1    0    0    0    0 -0.00000000000E+00 -0.00000000000E+00 -0.12500000000E+03  0.12500000000E+03  0.00000000000E+00 0.  1.
         24    1    1    2    0    0 -0.73946722196E+02 -0.26055276216E+02 -0.54870656123E+02  0.12500000000E+03  0.80419002446E+02 0.  0.
        -24    1    1    2    0    0  0.73946722196E+02  0.26055276216E+02  0.54870656123E+02  0.12500000000E+03  0.80419002446E+02 0.  0.
</event>
<event>
 4    1  0.1599584E-001  0.1250000E+03  0.7546771E-02  0.1126479E+00
        -11   -1    0    0    0    0  0.00000000000E+00  0.00000000000E+00  0.12500000000E+03  0.12500000000E+03  0.00000000000E+00 0.  1.
         11   -1    0    0    0    0 -0.00000000000E+00 -0.00000000000E+00 -0.12500000000E+03  0.12500000000E+03  0.00000000000E+00 0. -1.
         24    1    1    2    0    0 -0.25287466698E+02 -0.13734221569E+02  0.91267185952E+02  0.12500000000E+03  0.80419002446E+02 0.  0.
        -24    1    1    2    0    0  0.25287466698E+02  0.13734221569E+02 -0.91267185952E+02  0.12500000000E+03  0.80419002446E+02 0.  0.
</event>
<event>
 4    1  0.1599584E-001  0.1250000E+03  0.7546771E-02  0.1126479E+00
        -11   -1    0    0    0    0  0.00000000000E+00  0.00000000000E+00  0.12500000000E+03  0.12500000000E+03  0.00000000000E+00 0.  1.
         11   -1    0    0    0    0 -0.00000000000E+00 -0.00000000000E+00 -0.12500000000E+03  0.12500000000E+03  0.00000000000E+00 0. -1.
         24    1    1    2    0    0 -0.50078605169E+02 -0.25453566763E+02  0.77472790636E+02  0.12500000000E+03  0.80419002446E+02 0.  1.
        -24    1    1    2    0    0  0.50078605169E+02  0.25453566763E+02 -0.77472790636E+02  0.12500000000E+03  0.80419002446E+02 0. -1.
</event>
<event>
 4    1  0.1599584E-001  0.1250000E+03  0.7546771E-02  0.1126479E+00
        -11   -1    0    0    0    0  0.00000000000E+00  0.00000000000E+00  0.12500000000E+03  0.12500000000E+03  0.00000000000E+00 0.  1.
         11   -1    0    0    0    0 -0.00000000000E+00 -0.00000000000E+00 -0.12500000000E+03  0.12500000000E+03  0.00000000000E+00 0. -1.
         24    1    1    2    0    0  0.42710073101E+02  0.14906174425E+02  0.84329352336E+02  0.12500000000E+03  0.80419002446E+02 0. -1.
        -24    1    1    2    0    0 -0.42710073101E+02 -0.14906174425E+02 -0.84329352336E+02  0.12500000000E+03  0.80419002446E+02 0. -1.
</event>
<event>
 4    1  0.1599584E-001  0.1250000E+03  0.7546771E-02  0.1126479E+00
        -11   -1    0    0    0    0  0.00000000000E+00  0.00000000000E+00  0.12500000000E+03  0.12500000000E+03  0.00000000000E+00 0.  1.
         11   -1    0    0    0    0 -0.00000000000E+00 -0.00000000000E+00 -0.12500000000E+03  0.12500000000E+03  0.00000000000E+00 0. -1.
         24    1    1    2    0    0  0.48613467087E+02 -0.81524058222E+02  0.12179605678E+02  0.12500000000E+03  0.80419002446E+02 0.  1.
        -24    1    1    2    0    0 -0.48613467087E+02  0.81524058222E+02 -0.12179605678E+02  0.12500000000E+03  0.80419002446E+02 0. -1.
</event>
<event>
 4    1  0.1599584E-001  0.1250000E+03  0.7546771E-02  0.1126479E+00
        -11   -1    0    0    0    0  0.00000000000E+00  0.00000000000E+00  0.12500000000E+03  0.12500000000E+03  0.00000000000E+00 0.  1.
         11   -1    0    0    0    0 -0.00000000000E+00 -0.00000000000E+00 -0.12500000000E+03  0.12500000000E+03  0.00000000000E+00 0. -1.
         24    1    1    2    0    0  0.92059980924E+02  0.21690739408E+02 -0.14569000713E+02  0.12500000000E+03  0.80419002446E+02 0.  0.
        -24    1    1    2    0    0 -0.92059980924E+02 -0.21690739408E+02  0.14569000713E+02  0.12500000000E+03  0.80419002446E+02 0.  0.
</event>
<event>
 4    1  0.1599584E-001  0.1250000E+03  0.7546771E-02  0.1126479E+00
        -11   -1    0    0    0    0  0.00000000000E+00  0.00000000000E+00  0.12500000000E+03  0.12500000000E+03  0.00000000000E+00 0.  1.
         11   -1    0    0    0    0 -0.00000000000E+00 -0.00000000000E+00 -0.12500000000E+03  0.12500000000E+03  0.00000000000E+00 0. -1.
         24    1    1    2    0    0  0.66131618695E+02  0.59305236031E+02  0.35598904951E+02  0.12500000000E+03  0.80419002446E+02 0.  1.
        -24    1    1    2    0    0 -0.66131618695E+02 -0.59305236031E+02 -0.35598904951E+02  0.12500000000E+03  0.80419002446E+02 0. -1.
</event>
<event>
 4    1  0.1599584E-001  0.1250000E+03  0.7546771E-02  0.1126479E+00
        -11   -1    0    0    0    0  0.00000000000E+00  0.00000000000E+00  0.12500000000E+03  0.12500000000E+03  0.00000000000E+00 0.  1.
         11   -1    0    0    0    0 -0.00000000000E+00 -0.00000000000E+00 -0.12500000000E+03  0.12500000000E+03  0.00000000000E+00 0. -1.
         24    1    1    2    0    0 -0.74648188430E+02 -0.39424349177E+02 -0.45068311502E+02  0.12500000000E+03  0.80419002446E+02 0.  0.
        -24    1    1    2    0    0  0.74648188430E+02  0.39424349177E+02  0.45068311502E+02  0.12500000000E+03  0.80419002446E+02 0.  0.
</event>
<event>
 4    1  0.1599584E-001  0.1250000E+03  0.7546771E-02  0.1126479E+00
        -11   -1    0    0    0    0  0.00000000000E+00  0.00000000000E+00  0.12500000000E+03  0.12500000000E+03  0.00000000000E+00 0.  1.
         11   -1    0    0    0    0 -0.00000000000E+00 -0.00000000000E+00 -0.12500000000E+03  0.12500000000E+03  0.00000000000E+00 0. -1.
         24    1    1    2    0    0  0.13514546477E+02 -0.17098647842E+02  0.93181421545E+02  0.12500000000E+03  0.80419002446E+02 0.  1.
        -24    1    1    2    0    0 -0.13514546477E+02  0.17098647842E+02 -0.93181421545E+02  0.12500000000E+03  0.80419002446E+02 0.  0.
</event>
<event>
 4    1  0.1599584E-001  0.1250000E+03  0.7546771E-02  0.1126479E+00
        -11   -1    0    0    0    0  0.00000000000E+00  0.00000000000E+00  0.12500000000E+03  0.12500000000E+03  0.00000000000E+00 0.  1.
         11   -1    0    0    0    0 -0.00000000000E+00 -0.00000000000E+00 -0.12500000000E+03  0.12500000000E+03  0.00000000000E+00 0. -1.
         24    1    1    2    0    0 -0.55924598474E+02  0.23195939881E+02  0.74109187718E+02  0.12500000000E+03  0.80419002446E+02 0.  1.
        -24    1    1    2    0    0  0.55924598474E+02 -0.23195939881E+02 -0.74109187718E+02  0.12500000000E+03  0.80419002446E+02 0. -1.
</event>
<event>
 4    1  0.1599584E-001  0.1250000E+03  0.7546771E-02  0.1126479E+00
        -11   -1    0    0    0    0  0.00000000000E+00  0.00000000000E+00  0.12500000000E+03  0.12500000000E+03  0.00000000000E+00 0.  1.
         11   -1    0    0    0    0 -0.00000000000E+00 -0.00000000000E+00 -0.12500000000E+03  0.12500000000E+03  0.00000000000E+00 0. -1.
         24    1    1    2    0    0 -0.31547644529E+01  0.15820526882E+02  0.94326785358E+02  0.12500000000E+03  0.80419002446E+02 0.  1.
        -24    1    1    2    0    0  0.31547644529E+01 -0.15820526882E+02 -0.94326785358E+02  0.12500000000E+03  0.80419002446E+02 0. -1.
</event>
<event>
 4    1  0.1599584E-001  0.1250000E+03  0.7546771E-02  0.1126479E+00
        -11   -1    0    0    0    0  0.00000000000E+00  0.00000000000E+00  0.12500000000E+03  0.12500000000E+03  0.00000000000E+00 0.  1.
         11   -1    0    0    0    0 -0.00000000000E+00 -0.00000000000E+00 -0.12500000000E+03  0.12500000000E+03  0.00000000000E+00 0. -1.
         24    1    1    2    0    0  0.53285221543E+02  0.42666539841E+02  0.67067395869E+02  0.12500000000E+03  0.80419002446E+02 0.  1.
        -24    1    1    2    0    0 -0.53285221543E+02 -0.42666539841E+02 -0.67067395869E+02  0.12500000000E+03  0.80419002446E+02 0. -1.
</event>
<event>
 4    1  0.1599584E-001  0.1250000E+03  0.7546771E-02  0.1126479E+00
        -11   -1    0    0    0    0  0.00000000000E+00  0.00000000000E+00  0.12500000000E+03  0.12500000000E+03  0.00000000000E+00 0. -1.
         11   -1    0    0    0    0 -0.00000000000E+00 -0.00000000000E+00 -0.12500000000E+03  0.12500000000E+03  0.00000000000E+00 0.  1.
         24    1    1    2    0    0  0.14496367446E+02  0.30229984684E+02  0.89631397415E+02  0.12500000000E+03  0.80419002446E+02 0. -1.
        -24    1    1    2    0    0 -0.14496367446E+02 -0.30229984684E+02 -0.89631397415E+02  0.12500000000E+03  0.80419002446E+02 0.  0.
</event>
<event>
 4    1  0.1599584E-001  0.1250000E+03  0.7546771E-02  0.1126479E+00
        -11   -1    0    0    0    0  0.00000000000E+00  0.00000000000E+00  0.12500000000E+03  0.12500000000E+03  0.00000000000E+00 0.  1.
         11   -1    0    0    0    0 -0.00000000000E+00 -0.00000000000E+00 -0.12500000000E+03  0.12500000000E+03  0.00000000000E+00 0. -1.
         24    1    1    2    0    0  0.54220409964E+02  0.61718742597E+02  0.49078793804E+02  0.12500000000E+03  0.80419002446E+02 0. -1.
        -24    1    1    2    0    0 -0.54220409964E+02 -0.61718742597E+02 -0.49078793804E+02  0.12500000000E+03  0.80419002446E+02 0.  0.
</event>
<event>
 4    1  0.1599584E-001  0.1250000E+03  0.7546771E-02  0.1126479E+00
        -11   -1    0    0    0    0  0.00000000000E+00  0.00000000000E+00  0.12500000000E+03  0.12500000000E+03  0.00000000000E+00 0.  1.
         11   -1    0    0    0    0 -0.00000000000E+00 -0.00000000000E+00 -0.12500000000E+03  0.12500000000E+03  0.00000000000E+00 0. -1.
         24    1    1    2    0    0  0.23257401382E+01 -0.18186129491E+02  0.93923584219E+02  0.12500000000E+03  0.80419002446E+02 0.  1.
        -24    1    1    2    0    0 -0.23257401382E+01  0.18186129491E+02 -0.93923584219E+02  0.12500000000E+03  0.80419002446E+02 0.  0.
</event>
<event>
 4    1  0.1599584E-001  0.1250000E+03  0.7546771E-02  0.1126479E+00
        -11   -1    0    0    0    0  0.00000000000E+00  0.00000000000E+00  0.12500000000E+03  0.12500000000E+03  0.00000000000E+00 0.  1.
         11   -1    0    0    0    0 -0.00000000000E+00 -0.00000000000E+00 -0.12500000000E+03  0.12500000000E+03  0.00000000000E+00 0. -1.
         24    1    1    2    0    0  0.33516139143E+02  0.78634752183E+02  0.43023577392E+02  0.12500000000E+03  0.80419002446E+02 0.  1.
        -24    1    1    2    0    0 -0.33516139143E+02 -0.78634752183E+02 -0.43023577392E+02  0.12500000000E+03  0.80419002446E+02 0. -1.
</event>
<event>
 4    1  0.1599584E-001  0.1250000E+03  0.7546771E-02  0.1126479E+00
        -11   -1    0    0    0    0  0.00000000000E+00  0.00000000000E+00  0.12500000000E+03  0.12500000000E+03  0.00000000000E+00 0.  1.
         11   -1    0    0    0    0 -0.00000000000E+00 -0.00000000000E+00 -0.12500000000E+03  0.12500000000E+03  0.00000000000E+00 0. -1.
         24    1    1    2    0    0  0.52201046277E+02 -0.78332560296E+02  0.17229184855E+02  0.12500000000E+03  0.80419002446E+02 0. -1.
        -24    1    1    2    0    0 -0.52201046277E+02  0.78332560296E+02 -0.17229184855E+02  0.12500000000E+03  0.80419002446E+02 0.  1.
</event>
<event>
 4    1  0.1599584E-001  0.1250000E+03  0.7546771E-02  0.1126479E+00
        -11   -1    0    0    0    0  0.00000000000E+00  0.00000000000E+00  0.12500000000E+03  0.12500000000E+03  0.00000000000E+00 0.  1.
         11   -1    0    0    0    0 -0.00000000000E+00 -0.00000000000E+00 -0.12500000000E+03  0.12500000000E+03  0.00000000000E+00 0. -1.
         24    1    1    2    0    0 -0.11536757200E+02  0.31966064715E+02  0.89458694298E+02  0.12500000000E+03  0.80419002446E+02 0.  1.
        -24    1    1    2    0    0  0.11536757200E+02 -0.31966064715E+02 -0.89458694298E+02  0.12500000000E+03  0.80419002446E+02 0. -1.
</event>
<event>
 4    1  0.1599584E-001  0.1250000E+03  0.7546771E-02  0.1126479E+00
        -11   -1    0    0    0    0  0.00000000000E+00  0.00000000000E+00  0.12500000000E+03  0.12500000000E+03  0.00000000000E+00 0.  1.
         11   -1    0    0    0    0 -0.00000000000E+00 -0.00000000000E+00 -0.12500000000E+03  0.12500000000E+03  0.00000000000E+00 0. -1.
         24    1    1    2    0    0  0.29382043736E+02 -0.29020098487E+02  0.86326782839E+02  0.12500000000E+03  0.80419002446E+02 0.  1.
        -24    1    1    2    0    0 -0.29382043736E+02  0.29020098487E+02 -0.86326782839E+02  0.12500000000E+03  0.80419002446E+02 0. -1.
</event>
<event>
 4    1  0.1599584E-001  0.1250000E+03  0.7546771E-02  0.1126479E+00
        -11   -1    0    0    0    0  0.00000000000E+00  0.00000000000E+00  0.12500000000E+03  0.12500000000E+03  0.00000000000E+00 0.  1.
         11   -1    0    0    0    0 -0.00000000000E+00 -0.00000000000E+00 -0.12500000000E+03  0.12500000000E+03  0.00000000000E+00 0. -1.
         24    1    1    2    0    0  0.82469599658E+02 -0.48370905693E+02 -0.40993487684E+01  0.12500000000E+03  0.80419002446E+02 0.  0.
        -24    1    1    2    0    0 -0.82469599658E+02  0.48370905693E+02  0.40993487684E+01  0.12500000000E+03  0.80419002446E+02 0.  0.
</event>
<event>
 4    1  0.1599584E-001  0.1250000E+03  0.7546771E-02  0.1126479E+00
        -11   -1    0    0    0    0  0.00000000000E+00  0.00000000000E+00  0.12500000000E+03  0.12500000000E+03  0.00000000000E+00 0.  1.
         11   -1    0    0    0    0 -0.00000000000E+00 -0.00000000000E+00 -0.12500000000E+03  0.12500000000E+03  0.00000000000E+00 0. -1.
         24    1    1    2    0    0 -0.47454456401E+02 -0.21203603449E+02  0.80350891807E+02  0.12500000000E+03  0.80419002446E+02 0.  1.
        -24    1    1    2    0    0  0.47454456401E+02  0.21203603449E+02 -0.80350891807E+02  0.12500000000E+03  0.80419002446E+02 0. -1.
</event>
<event>
 4    1  0.1599584E-001  0.1250000E+03  0.7546771E-02  0.1126479E+00
        -11   -1    0    0    0    0  0.00000000000E+00  0.00000000000E+00  0.12500000000E+03  0.12500000000E+03  0.00000000000E+00 0.  1.
         11   -1    0    0    0    0 -0.00000000000E+00 -0.00000000000E+00 -0.12500000000E+03  0.12500000000E+03  0.00000000000E+00 0. -1.
         24    1    1    2    0    0  0.43685420720E+02  0.65556214831E+02  0.54330017110E+02  0.12500000000E+03  0.80419002446E+02 0.  1.
        -24    1    1    2    0    0 -0.43685420720E+02 -0.65556214831E+02 -0.54330017110E+02  0.12500000000E+03  0.80419002446E+02 0. -1.
</event>
<event>
 4    1  0.1599584E-001  0.1250000E+03  0.7546771E-02  0.1126479E+00
        -11   -1    0    0    0    0  0.00000000000E+00  0.00000000000E+00  0.12500000000E+03  0.12500000000E+03  0.00000000000E+00 0.  1.
         11   -1    0    0    0    0 -0.00000000000E+00 -0.00000000000E+00 -0.12500000000E+03  0.12500000000E+03  0.00000000000E+00 0. -1.
         24    1    1    2    0    0  0.84469781639E+02 -0.31346161251E+02  0.32249933494E+02  0.12500000000E+03  0.80419002446E+02 0.  0.
        -24    1    1    2    0    0 -0.84469781639E+02  0.31346161251E+02 -0.32249933494E+02  0.12500000000E+03  0.80419002446E+02 0.  0.
</event>
<event>
 4    1  0.1599584E-001  0.1250000E+03  0.7546771E-02  0.1126479E+00
        -11   -1    0    0    0    0  0.00000000000E+00  0.00000000000E+00  0.12500000000E+03  0.12500000000E+03  0.00000000000E+00 0.  1.
         11   -1    0    0    0    0 -0.00000000000E+00 -0.00000000000E+00 -0.12500000000E+03  0.12500000000E+03  0.00000000000E+00 0. -1.
         24    1    1    2    0    0 -0.80584780499E+02  0.18597211724E+02  0.48145829659E+02  0.12500000000E+03  0.80419002446E+02 0.  1.
        -24    1    1    2    0    0  0.80584780499E+02 -0.18597211724E+02 -0.48145829659E+02  0.12500000000E+03  0.80419002446E+02 0.  0.
</event>
<event>
 4    1  0.1599584E-001  0.1250000E+03  0.7546771E-02  0.1126479E+00
        -11   -1    0    0    0    0  0.00000000000E+00  0.00000000000E+00  0.12500000000E+03  0.12500000000E+03  0.00000000000E+00 0.  1.
         11   -1    0    0    0    0 -0.00000000000E+00 -0.00000000000E+00 -0.12500000000E+03  0.12500000000E+03  0.00000000000E+00 0. -1.
         24    1    1    2    0    0  0.99273069182E+01 -0.26943208814E+02  0.91286889101E+02  0.12500000000E+03  0.80419002446E+02 0.  1.
        -24    1    1    2    0    0 -0.99273069182E+01  0.26943208814E+02 -0.91286889101E+02  0.12500000000E+03  0.80419002446E+02 0. -1.
</event>
<event>
 4    1  0.1599584E-001  0.1250000E+03  0.7546771E-02  0.1126479E+00
        -11   -1    0    0    0    0  0.00000000000E+00  0.00000000000E+00  0.12500000000E+03  0.12500000000E+03  0.00000000000E+00 0.  1.
         11   -1    0    0    0    0 -0.00000000000E+00 -0.00000000000E+00 -0.12500000000E+03  0.12500000000E+03  0.00000000000E+00 0. -1.
         24    1    1    2    0    0 -0.72280919517E+02 -0.31377926668E+01  0.62637105430E+02  0.12500000000E+03  0.80419002446E+02 0.  1.
        -24    1    1    2    0    0  0.72280919517E+02  0.31377926668E+01 -0.62637105430E+02  0.12500000000E+03  0.80419002446E+02 0. -1.
</event>
<event>
 4    1  0.1599584E-001  0.1250000E+03  0.7546771E-02  0.1126479E+00
        -11   -1    0    0    0    0  0.00000000000E+00  0.00000000000E+00  0.12500000000E+03  0.12500000000E+03  0.00000000000E+00 0.  1.
         11   -1    0    0    0    0 -0.00000000000E+00 -0.00000000000E+00 -0.12500000000E+03  0.12500000000E+03  0.00000000000E+00 0. -1.
         24    1    1    2    0    0 -0.27491633453E+02 -0.71289343515E+01  0.91384749443E+02  0.12500000000E+03  0.80419002446E+02 0.  1.
        -24    1    1    2    0    0  0.27491633453E+02  0.71289343515E+01 -0.91384749443E+02  0.12500000000E+03  0.80419002446E+02 0. -1.
</event>
<event>
 4    1  0.1599584E-001  0.1250000E+03  0.7546771E-02  0.1126479E+00
        -11   -1    0    0    0    0  0.00000000000E+00  0.00000000000E+00  0.12500000000E+03  0.12500000000E+03  0.00000000000E+00 0.  1.
         11   -1    0    0    0    0 -0.00000000000E+00 -0.00000000000E+00 -0.12500000000E+03  0.12500000000E+03  0.00000000000E+00 0. -1.
         24    1    1    2    0    0 -0.32039570453E+02  0.46661025410E+02  0.77162158332E+02  0.12500000000E+03  0.80419002446E+02 0.  1.
        -24    1    1    2    0    0  0.32039570453E+02 -0.46661025410E+02 -0.77162158332E+02  0.12500000000E+03  0.80419002446E+02 0. -1.
</event>
<event>
 4    1  0.1599584E-001  0.1250000E+03  0.7546771E-02  0.1126479E+00
        -11   -1    0    0    0    0  0.00000000000E+00  0.00000000000E+00  0.12500000000E+03  0.12500000000E+03  0.00000000000E+00 0.  1.
         11   -1    0    0    0    0 -0.00000000000E+00 -0.00000000000E+00 -0.12500000000E+03  0.12500000000E+03  0.00000000000E+00 0. -1.
         24    1    1    2    0    0  0.48150805433E+00  0.15560810607E+02  0.94421466674E+02  0.12500000000E+03  0.80419002446E+02 0.  1.
        -24    1    1    2    0    0 -0.48150805433E+00 -0.15560810607E+02 -0.94421466674E+02  0.12500000000E+03  0.80419002446E+02 0.  0.
</event>
<event>
 4    1  0.1599584E-001  0.1250000E+03  0.7546771E-02  0.1126479E+00
        -11   -1    0    0    0    0  0.00000000000E+00  0.00000000000E+00  0.12500000000E+03  0.12500000000E+03  0.00000000000E+00 0.  1.
         11   -1    0    0    0    0 -0.00000000000E+00 -0.00000000000E+00 -0.12500000000E+03  0.12500000000E+03  0.00000000000E+00 0. -1.
         24    1    1    2    0    0  0.22898184536E+02  0.34877300148E+02  0.86122187182E+02  0.12500000000E+03  0.80419002446E+02 0.  1.
        -24    1    1    2    0    0 -0.22898184536E+02 -0.34877300148E+02 -0.86122187182E+02  0.12500000000E+03  0.80419002446E+02 0. -1.
</event>
<event>
 4    1  0.1599584E-001  0.1250000E+03  0.7546771E-02  0.1126479E+00
        -11   -1    0    0    0    0  0.00000000000E+00  0.00000000000E+00  0.12500000000E+03  0.12500000000E+03  0.00000000000E+00 0.  1.
         11   -1    0    0    0    0 -0.00000000000E+00 -0.00000000000E+00 -0.12500000000E+03  0.12500000000E+03  0.00000000000E+00 0. -1.
         24    1    1    2    0    0  0.43201064047E+01  0.46329415251E+02  0.83622401357E+02  0.12500000000E+03  0.80419002446E+02 0.  1.
        -24    1    1    2    0    0 -0.43201064047E+01 -0.46329415251E+02 -0.83622401357E+02  0.12500000000E+03  0.80419002446E+02 0. -1.
</event>
<event>
 4    1  0.1599584E-001  0.1250000E+03  0.7546771E-02  0.1126479E+00
        -11   -1    0    0    0    0  0.00000000000E+00  0.00000000000E+00  0.12500000000E+03  0.12500000000E+03  0.00000000000E+00 0.  1.
         11   -1    0    0    0    0 -0.00000000000E+00 -0.00000000000E+00 -0.12500000000E+03  0.12500000000E+03  0.00000000000E+00 0. -1.
         24    1    1    2    0    0 -0.11431218221E+02  0.27131543887E+02  0.91054876980E+02  0.12500000000E+03  0.80419002446E+02 0.  1.
        -24    1    1    2    0    0  0.11431218221E+02 -0.27131543887E+02 -0.91054876980E+02  0.12500000000E+03  0.80419002446E+02 0. -1.
</event>
<event>
 4    1  0.1599584E-001  0.1250000E+03  0.7546771E-02  0.1126479E+00
        -11   -1    0    0    0    0  0.00000000000E+00  0.00000000000E+00  0.12500000000E+03  0.12500000000E+03  0.00000000000E+00 0.  1.
         11   -1    0    0    0    0 -0.00000000000E+00 -0.00000000000E+00 -0.12500000000E+03  0.12500000000E+03  0.00000000000E+00 0. -1.
         24    1    1    2    0    0 -0.63249872079E+02 -0.34882456602E+02  0.62773019276E+02  0.12500000000E+03  0.80419002446E+02 0.  1.
        -24    1    1    2    0    0  0.63249872079E+02  0.34882456602E+02 -0.62773019276E+02  0.12500000000E+03  0.80419002446E+02 0. -1.
</event>
<event>
 4    1  0.1599584E-001  0.1250000E+03  0.7546771E-02  0.1126479E+00
        -11   -1    0    0    0    0  0.00000000000E+00  0.00000000000E+00  0.12500000000E+03  0.12500000000E+03  0.00000000000E+00 0.  1.
         11   -1    0    0    0    0 -0.00000000000E+00 -0.00000000000E+00 -0.12500000000E+03  0.12500000000E+03  0.00000000000E+00 0. -1.
         24    1    1    2    0    0 -0.12884379739E+01 -0.10321707069E+02  0.95129313760E+02  0.12500000000E+03  0.80419002446E+02 0.  0.
        -24    1    1    2    0    0  0.12884379739E+01  0.10321707069E+02 -0.95129313760E+02  0.12500000000E+03  0.80419002446E+02 0. -1.
</event>
<event>
 4    1  0.1599584E-001  0.1250000E+03  0.7546771E-02  0.1126479E+00
        -11   -1    0    0    0    0  0.00000000000E+00  0.00000000000E+00  0.12500000000E+03  0.12500000000E+03  0.00000000000E+00 0.  1.
         11   -1    0    0    0    0 -0.00000000000E+00 -0.00000000000E+00 -0.12500000000E+03  0.12500000000E+03  0.00000000000E+00 0. -1.
         24    1    1    2    0    0 -0.14715301441E+02 -0.11977668804E+01  0.94550564798E+02  0.12500000000E+03  0.80419002446E+02 0.  1.
        -24    1    1    2    0    0  0.14715301441E+02  0.11977668804E+01 -0.94550564798E+02  0.12500000000E+03  0.80419002446E+02 0. -1.
</event>
<event>
 4    1  0.1599584E-001  0.1250000E+03  0.7546771E-02  0.1126479E+00
        -11   -1    0    0    0    0  0.00000000000E+00  0.00000000000E+00  0.12500000000E+03  0.12500000000E+03  0.00000000000E+00 0.  1.
         11   -1    0    0    0    0 -0.00000000000E+00 -0.00000000000E+00 -0.12500000000E+03  0.12500000000E+03  0.00000000000E+00 0. -1.
         24    1    1    2    0    0  0.15466069652E+02 -0.13241381053E+02  0.93505350451E+02  0.12500000000E+03  0.80419002446E+02 0.  1.
        -24    1    1    2    0    0 -0.15466069652E+02  0.13241381053E+02 -0.93505350451E+02  0.12500000000E+03  0.80419002446E+02 0. -1.
</event>
<event>
 4    1  0.1599584E-001  0.1250000E+03  0.7546771E-02  0.1126479E+00
        -11   -1    0    0    0    0  0.00000000000E+00  0.00000000000E+00  0.12500000000E+03  0.12500000000E+03  0.00000000000E+00 0.  1.
         11   -1    0    0    0    0 -0.00000000000E+00 -0.00000000000E+00 -0.12500000000E+03  0.12500000000E+03  0.00000000000E+00 0. -1.
         24    1    1    2    0    0 -0.71293481360E+02 -0.62740622763E+02  0.11774456100E+02  0.12500000000E+03  0.80419002446E+02 0.  0.
        -24    1    1    2    0    0  0.71293481360E+02  0.62740622763E+02 -0.11774456100E+02  0.12500000000E+03  0.80419002446E+02 0. -1.
</event>
<event>
 4    1  0.1599584E-001  0.1250000E+03  0.7546771E-02  0.1126479E+00
        -11   -1    0    0    0    0  0.00000000000E+00  0.00000000000E+00  0.12500000000E+03  0.12500000000E+03  0.00000000000E+00 0.  1.
         11   -1    0    0    0    0 -0.00000000000E+00 -0.00000000000E+00 -0.12500000000E+03  0.12500000000E+03  0.00000000000E+00 0. -1.
         24    1    1    2    0    0  0.18242730986E+02 -0.24574023387E+02  0.90670304877E+02  0.12500000000E+03  0.80419002446E+02 0.  1.
        -24    1    1    2    0    0 -0.18242730986E+02  0.24574023387E+02 -0.90670304877E+02  0.12500000000E+03  0.80419002446E+02 0. -1.
</event>
<event>
 4    1  0.1599584E-001  0.1250000E+03  0.7546771E-02  0.1126479E+00
        -11   -1    0    0    0    0  0.00000000000E+00  0.00000000000E+00  0.12500000000E+03  0.12500000000E+03  0.00000000000E+00 0.  1.
         11   -1    0    0    0    0 -0.00000000000E+00 -0.00000000000E+00 -0.12500000000E+03  0.12500000000E+03  0.00000000000E+00 0. -1.
         24    1    1    2    0    0  0.36704277613E+02 -0.44444433074E+02  0.76388954825E+02  0.12500000000E+03  0.80419002446E+02 0.  1.
        -24    1    1    2    0    0 -0.36704277613E+02  0.44444433074E+02 -0.76388954825E+02  0.12500000000E+03  0.80419002446E+02 0. -1.
</event>
<event>
 4    1  0.1599584E-001  0.1250000E+03  0.7546771E-02  0.1126479E+00
        -11   -1    0    0    0    0  0.00000000000E+00  0.00000000000E+00  0.12500000000E+03  0.12500000000E+03  0.00000000000E+00 0.  1.
         11   -1    0    0    0    0 -0.00000000000E+00 -0.00000000000E+00 -0.12500000000E+03  0.12500000000E+03  0.00000000000E+00 0. -1.
         24    1    1    2    0    0 -0.28409263827E+02 -0.11685428615E+02  0.90631939914E+02  0.12500000000E+03  0.80419002446E+02 0.  1.
        -24    1    1    2    0    0  0.28409263827E+02  0.11685428615E+02 -0.90631939914E+02  0.12500000000E+03  0.80419002446E+02 0. -1.
</event>
<event>
 4    1  0.1599584E-001  0.1250000E+03  0.7546771E-02  0.1126479E+00
        -11   -1    0    0    0    0  0.00000000000E+00  0.00000000000E+00  0.12500000000E+03  0.12500000000E+03  0.00000000000E+00 0.  1.
         11   -1    0    0    0    0 -0.00000000000E+00 -0.00000000000E+00 -0.12500000000E+03  0.12500000000E+03  0.00000000000E+00 0. -1.
         24    1    1    2    0    0  0.49836826809E+02 -0.92216017237E+01  0.81172882177E+02  0.12500000000E+03  0.80419002446E+02 0.  1.
        -24    1    1    2    0    0 -0.49836826809E+02  0.92216017237E+01 -0.81172882177E+02  0.12500000000E+03  0.80419002446E+02 0. -1.
</event>
<event>
 4    1  0.1599584E-001  0.1250000E+03  0.7546771E-02  0.1126479E+00
        -11   -1    0    0    0    0  0.00000000000E+00  0.00000000000E+00  0.12500000000E+03  0.12500000000E+03  0.00000000000E+00 0.  1.
         11   -1    0    0    0    0 -0.00000000000E+00 -0.00000000000E+00 -0.12500000000E+03  0.12500000000E+03  0.00000000000E+00 0. -1.
         24    1    1    2    0    0  0.65904907624E+02  0.62759214693E+02 -0.29590677042E+02  0.12500000000E+03  0.80419002446E+02 0. -1.
        -24    1    1    2    0    0 -0.65904907624E+02 -0.62759214693E+02  0.29590677042E+02  0.12500000000E+03  0.80419002446E+02 0.  1.
</event>
<event>
 4    1  0.1599584E-001  0.1250000E+03  0.7546771E-02  0.1126479E+00
        -11   -1    0    0    0    0  0.00000000000E+00  0.00000000000E+00  0.12500000000E+03  0.12500000000E+03  0.00000000000E+00 0.  1.
         11   -1    0    0    0    0 -0.00000000000E+00 -0.00000000000E+00 -0.12500000000E+03  0.12500000000E+03  0.00000000000E+00 0. -1.
         24    1    1    2    0    0 -0.68760507188E+02  0.42450574760E+02  0.51261344104E+02  0.12500000000E+03  0.80419002446E+02 0.  1.
        -24    1    1    2    0    0  0.68760507188E+02 -0.42450574760E+02 -0.51261344104E+02  0.12500000000E+03  0.80419002446E+02 0. -1.
</event>
<event>
 4    1  0.1599584E-001  0.1250000E+03  0.7546771E-02  0.1126479E+00
        -11   -1    0    0    0    0  0.00000000000E+00  0.00000000000E+00  0.12500000000E+03  0.12500000000E+03  0.00000000000E+00 0.  1.
         11   -1    0    0    0    0 -0.00000000000E+00 -0.00000000000E+00 -0.12500000000E+03  0.12500000000E+03  0.00000000000E+00 0. -1.
         24    1    1    2    0    0 -0.11214073327E+02  0.17569478277E+02  0.93398833173E+02  0.12500000000E+03  0.80419002446E+02 0.  1.
        -24    1    1    2    0    0  0.11214073327E+02 -0.17569478277E+02 -0.93398833173E+02  0.12500000000E+03  0.80419002446E+02 0.  0.
</event>
<event>
 4    1  0.1599584E-001  0.1250000E+03  0.7546771E-02  0.1126479E+00
        -11   -1    0    0    0    0  0.00000000000E+00  0.00000000000E+00  0.12500000000E+03  0.12500000000E+03  0.00000000000E+00 0.  1.
         11   -1    0    0    0    0 -0.00000000000E+00 -0.00000000000E+00 -0.12500000000E+03  0.12500000000E+03  0.00000000000E+00 0. -1.
         24    1    1    2    0    0  0.17684245898E+02  0.83508689940E+02  0.43259105367E+02  0.12500000000E+03  0.80419002446E+02 0. -1.
        -24    1    1    2    0    0 -0.17684245898E+02 -0.83508689940E+02 -0.43259105367E+02  0.12500000000E+03  0.80419002446E+02 0.  0.
</event>
<event>
 4    1  0.1599584E-001  0.1250000E+03  0.7546771E-02  0.1126479E+00
        -11   -1    0    0    0    0  0.00000000000E+00  0.00000000000E+00  0.12500000000E+03  0.12500000000E+03  0.00000000000E+00 0.  1.
         11   -1    0    0    0    0 -0.00000000000E+00 -0.00000000000E+00 -0.12500000000E+03  0.12500000000E+03  0.00000000000E+00 0. -1.
         24    1    1    2    0    0  0.98780714680E+01 -0.55863565733E+02  0.77067955554E+02  0.12500000000E+03  0.80419002446E+02 0.  1.
        -24    1    1    2    0    0 -0.98780714680E+01  0.55863565733E+02 -0.77067955554E+02  0.12500000000E+03  0.80419002446E+02 0. -1.
</event>
<event>
 4    1  0.1599584E-001  0.1250000E+03  0.7546771E-02  0.1126479E+00
        -11   -1    0    0    0    0  0.00000000000E+00  0.00000000000E+00  0.12500000000E+03  0.12500000000E+03  0.00000000000E+00 0.  1.
         11   -1    0    0    0    0 -0.00000000000E+00 -0.00000000000E+00 -0.12500000000E+03  0.12500000000E+03  0.00000000000E+00 0. -1.
         24    1    1    2    0    0 -0.83651930931E+02 -0.42290206364E+02  0.19278924835E+02  0.12500000000E+03  0.80419002446E+02 0. -1.
        -24    1    1    2    0    0  0.83651930931E+02  0.42290206364E+02 -0.19278924835E+02  0.12500000000E+03  0.80419002446E+02 0.  1.
</event>
<event>
 4    1  0.1599584E-001  0.1250000E+03  0.7546771E-02  0.1126479E+00
        -11   -1    0    0    0    0  0.00000000000E+00  0.00000000000E+00  0.12500000000E+03  0.12500000000E+03  0.00000000000E+00 0.  1.
         11   -1    0    0    0    0 -0.00000000000E+00 -0.00000000000E+00 -0.12500000000E+03  0.12500000000E+03  0.00000000000E+00 0. -1.
         24    1    1    2    0    0 -0.19506691927E+02 -0.30678779883E+02  0.88521666729E+02  0.12500000000E+03  0.80419002446E+02 0.  1.
        -24    1    1    2    0    0  0.19506691927E+02  0.30678779883E+02 -0.88521666729E+02  0.12500000000E+03  0.80419002446E+02 0. -1.
</event>
<event>
 4    1  0.1599584E-001  0.1250000E+03  0.7546771E-02  0.1126479E+00
        -11   -1    0    0    0    0  0.00000000000E+00  0.00000000000E+00  0.12500000000E+03  0.12500000000E+03  0.00000000000E+00 0.  1.
         11   -1    0    0    0    0 -0.00000000000E+00 -0.00000000000E+00 -0.12500000000E+03  0.12500000000E+03  0.00000000000E+00 0. -1.
         24    1    1    2    0    0  0.46422962041E+02  0.42114291350E+02  0.72312371729E+02  0.12500000000E+03  0.80419002446E+02 0.  1.
        -24    1    1    2    0    0 -0.46422962041E+02 -0.42114291350E+02 -0.72312371729E+02  0.12500000000E+03  0.80419002446E+02 0. -1.
</event>
<event>
 4    1  0.1599584E-001  0.1250000E+03  0.7546771E-02  0.1126479E+00
        -11   -1    0    0    0    0  0.00000000000E+00  0.00000000000E+00  0.12500000000E+03  0.12500000000E+03  0.00000000000E+00 0.  1.
         11   -1    0    0    0    0 -0.00000000000E+00 -0.00000000000E+00 -0.12500000000E+03  0.12500000000E+03  0.00000000000E+00 0. -1.
         24    1    1    2    0    0 -0.14454912655E+02  0.55273714428E+02  0.76770150704E+02  0.12500000000E+03  0.80419002446E+02 0.  1.
        -24    1    1    2    0    0  0.14454912655E+02 -0.55273714428E+02 -0.76770150704E+02  0.12500000000E+03  0.80419002446E+02 0. -1.
</event>
<event>
 4    1  0.1599584E-001  0.1250000E+03  0.7546771E-02  0.1126479E+00
        -11   -1    0    0    0    0  0.00000000000E+00  0.00000000000E+00  0.12500000000E+03  0.12500000000E+03  0.00000000000E+00 0.  1.
         11   -1    0    0    0    0 -0.00000000000E+00 -0.00000000000E+00 -0.12500000000E+03  0.12500000000E+03  0.00000000000E+00 0. -1.
         24    1    1    2    0    0  0.71567161424E+01  0.58700764291E+02  0.75238193302E+02  0.12500000000E+03  0.80419002446E+02 0.  1.
        -24    1    1    2    0    0 -0.71567161424E+01 -0.58700764291E+02 -0.75238193302E+02  0.12500000000E+03  0.80419002446E+02 0. -1.
</event>
<event>
 4    1  0.1599584E-001  0.1250000E+03  0.7546771E-02  0.1126479E+00
        -11   -1    0    0    0    0  0.00000000000E+00  0.00000000000E+00  0.12500000000E+03  0.12500000000E+03  0.00000000000E+00 0.  1.
         11   -1    0    0    0    0 -0.00000000000E+00 -0.00000000000E+00 -0.12500000000E+03  0.12500000000E+03  0.00000000000E+00 0. -1.
         24    1    1    2    0    0  0.41720962834E+02 -0.57025607494E+01  0.85933847271E+02  0.12500000000E+03  0.80419002446E+02 0.  1.
        -24    1    1    2    0    0 -0.41720962834E+02  0.57025607494E+01 -0.85933847271E+02  0.12500000000E+03  0.80419002446E+02 0. -1.
</event>
<event>
 4    1  0.1599584E-001  0.1250000E+03  0.7546771E-02  0.1126479E+00
        -11   -1    0    0    0    0  0.00000000000E+00  0.00000000000E+00  0.12500000000E+03  0.12500000000E+03  0.00000000000E+00 0.  1.
         11   -1    0    0    0    0 -0.00000000000E+00 -0.00000000000E+00 -0.12500000000E+03  0.12500000000E+03  0.00000000000E+00 0. -1.
         24    1    1    2    0    0 -0.73949968332E+02  0.59300053852E+02  0.13141150726E+02  0.12500000000E+03  0.80419002446E+02 0. -1.
        -24    1    1    2    0    0  0.73949968332E+02 -0.59300053852E+02 -0.13141150726E+02  0.12500000000E+03  0.80419002446E+02 0.  1.
</event>
<event>
 4    1  0.1599584E-001  0.1250000E+03  0.7546771E-02  0.1126479E+00
        -11   -1    0    0    0    0  0.00000000000E+00  0.00000000000E+00  0.12500000000E+03  0.12500000000E+03  0.00000000000E+00 0.  1.
         11   -1    0    0    0    0 -0.00000000000E+00 -0.00000000000E+00 -0.12500000000E+03  0.12500000000E+03  0.00000000000E+00 0. -1.
         24    1    1    2    0    0 -0.32408838865E+02  0.12894902790E+01  0.90032152167E+02  0.12500000000E+03  0.80419002446E+02 0.  1.
        -24    1    1    2    0    0  0.32408838865E+02 -0.12894902790E+01 -0.90032152167E+02  0.12500000000E+03  0.80419002446E+02 0. -1.
</event>
<event>
 4    1  0.1599584E-001  0.1250000E+03  0.7546771E-02  0.1126479E+00
        -11   -1    0    0    0    0  0.00000000000E+00  0.00000000000E+00  0.12500000000E+03  0.12500000000E+03  0.00000000000E+00 0.  1.
         11   -1    0    0    0    0 -0.00000000000E+00 -0.00000000000E+00 -0.12500000000E+03  0.12500000000E+03  0.00000000000E+00 0. -1.
         24    1    1    2    0    0 -0.41703001813E+02 -0.53895868169E+02  0.67185408235E+02  0.12500000000E+03  0.80419002446E+02 0.  1.
        -24    1    1    2    0    0  0.41703001813E+02  0.53895868169E+02 -0.67185408235E+02  0.12500000000E+03  0.80419002446E+02 0. -1.
</event>
<event>
 4    1  0.1599584E-001  0.1250000E+03  0.7546771E-02  0.1126479E+00
        -11   -1    0    0    0    0  0.00000000000E+00  0.00000000000E+00  0.12500000000E+03  0.12500000000E+03  0.00000000000E+00 0.  1.
         11   -1    0    0    0    0 -0.00000000000E+00 -0.00000000000E+00 -0.12500000000E+03  0.12500000000E+03  0.00000000000E+00 0. -1.
         24    1    1    2    0    0  0.30523763172E+02  0.90050468631E+02  0.10816516391E+02  0.12500000000E+03  0.80419002446E+02 0.  0.
        -24    1    1    2    0    0 -0.30523763172E+02 -0.90050468631E+02 -0.10816516391E+02  0.12500000000E+03  0.80419002446E+02 0. -1.
</event>
<event>
 4    1  0.1599584E-001  0.1250000E+03  0.7546771E-02  0.1126479E+00
        -11   -1    0    0    0    0  0.00000000000E+00  0.00000000000E+00  0.12500000000E+03  0.12500000000E+03  0.00000000000E+00 0. -1.
         11   -1    0    0    0    0 -0.00000000000E+00 -0.00000000000E+00 -0.12500000000E+03  0.12500000000E+03  0.00000000000E+00 0.  1.
         24    1    1    2    0    0 -0.82382457840E+02 -0.44505485427E+02 -0.19752884670E+02  0.12500000000E+03  0.80419002446E+02 0.  0.
        -24    1    1    2    0    0  0.82382457840E+02  0.44505485427E+02  0.19752884670E+02  0.12500000000E+03  0.80419002446E+02 0. -1.
</event>
<event>
 4    1  0.1599584E-001  0.1250000E+03  0.7546771E-02  0.1126479E+00
        -11   -1    0    0    0    0  0.00000000000E+00  0.00000000000E+00  0.12500000000E+03  0.12500000000E+03  0.00000000000E+00 0.  1.
         11   -1    0    0    0    0 -0.00000000000E+00 -0.00000000000E+00 -0.12500000000E+03  0.12500000000E+03  0.00000000000E+00 0. -1.
         24    1    1    2    0    0  0.15756526974E+02  0.63851154031E+02 -0.69516516255E+02  0.12500000000E+03  0.80419002446E+02 0. -1.
        -24    1    1    2    0    0 -0.15756526974E+02 -0.63851154031E+02  0.69516516255E+02  0.12500000000E+03  0.80419002446E+02 0.  1.
</event>
<event>
 4    1  0.1599584E-001  0.1250000E+03  0.7546771E-02  0.1126479E+00
        -11   -1    0    0    0    0  0.00000000000E+00  0.00000000000E+00  0.12500000000E+03  0.12500000000E+03  0.00000000000E+00 0.  1.
         11   -1    0    0    0    0 -0.00000000000E+00 -0.00000000000E+00 -0.12500000000E+03  0.12500000000E+03  0.00000000000E+00 0. -1.
         24    1    1    2    0    0  0.70291716565E+02  0.54614917672E+02  0.35129323870E+02  0.12500000000E+03  0.80419002446E+02 0.  1.
        -24    1    1    2    0    0 -0.70291716565E+02 -0.54614917672E+02 -0.35129323870E+02  0.12500000000E+03  0.80419002446E+02 0. -1.
</event>
<event>
 4    1  0.1599584E-001  0.1250000E+03  0.7546771E-02  0.1126479E+00
        -11   -1    0    0    0    0  0.00000000000E+00  0.00000000000E+00  0.12500000000E+03  0.12500000000E+03  0.00000000000E+00 0.  1.
         11   -1    0    0    0    0 -0.00000000000E+00 -0.00000000000E+00 -0.12500000000E+03  0.12500000000E+03  0.00000000000E+00 0. -1.
         24    1    1    2    0    0  0.60218289050E+02 -0.26559687505E+02  0.69470315309E+02  0.12500000000E+03  0.80419002446E+02 0.  1.
        -24    1    1    2    0    0 -0.60218289050E+02  0.26559687505E+02 -0.69470315309E+02  0.12500000000E+03  0.80419002446E+02 0. -1.
</event>
<event>
 4    1  0.1599584E-001  0.1250000E+03  0.7546771E-02  0.1126479E+00
        -11   -1    0    0    0    0  0.00000000000E+00  0.00000000000E+00  0.12500000000E+03  0.12500000000E+03  0.00000000000E+00 0.  1.
         11   -1    0    0    0    0 -0.00000000000E+00 -0.00000000000E+00 -0.12500000000E+03  0.12500000000E+03  0.00000000000E+00 0. -1.
         24    1    1    2    0    0 -0.11202657312E+02 -0.26550338568E+02  0.91254391876E+02  0.12500000000E+03  0.80419002446E+02 0.  1.
        -24    1    1    2    0    0  0.11202657312E+02  0.26550338568E+02 -0.91254391876E+02  0.12500000000E+03  0.80419002446E+02 0.  0.
</event>
<event>
 4    1  0.1599584E-001  0.1250000E+03  0.7546771E-02  0.1126479E+00
        -11   -1    0    0    0    0  0.00000000000E+00  0.00000000000E+00  0.12500000000E+03  0.12500000000E+03  0.00000000000E+00 0.  1.
         11   -1    0    0    0    0 -0.00000000000E+00 -0.00000000000E+00 -0.12500000000E+03  0.12500000000E+03  0.00000000000E+00 0. -1.
         24    1    1    2    0    0  0.12862572933E+02  0.51222725181E+02  0.79803325045E+02  0.12500000000E+03  0.80419002446E+02 0. -1.
        -24    1    1    2    0    0 -0.12862572933E+02 -0.51222725181E+02 -0.79803325045E+02  0.12500000000E+03  0.80419002446E+02 0. -1.
</event>
<event>
 4    1  0.1599584E-001  0.1250000E+03  0.7546771E-02  0.1126479E+00
        -11   -1    0    0    0    0  0.00000000000E+00  0.00000000000E+00  0.12500000000E+03  0.12500000000E+03  0.00000000000E+00 0.  1.
         11   -1    0    0    0    0 -0.00000000000E+00 -0.00000000000E+00 -0.12500000000E+03  0.12500000000E+03  0.00000000000E+00 0. -1.
         24    1    1    2    0    0  0.36726181330E+01 -0.23061823773E+02  0.92803276914E+02  0.12500000000E+03  0.80419002446E+02 0.  1.
        -24    1    1    2    0    0 -0.36726181330E+01  0.23061823773E+02 -0.92803276914E+02  0.12500000000E+03  0.80419002446E+02 0. -1.
</event>
<event>
 4    1  0.1599584E-001  0.1250000E+03  0.7546771E-02  0.1126479E+00
        -11   -1    0    0    0    0  0.00000000000E+00  0.00000000000E+00  0.12500000000E+03  0.12500000000E+03  0.00000000000E+00 0.  1.
         11   -1    0    0    0    0 -0.00000000000E+00 -0.00000000000E+00 -0.12500000000E+03  0.12500000000E+03  0.00000000000E+00 0. -1.
         24    1    1    2    0    0  0.45555858263E+02 -0.82774151476E+01  0.83749222217E+02  0.12500000000E+03  0.80419002446E+02 0.  1.
        -24    1    1    2    0    0 -0.45555858263E+02  0.82774151476E+01 -0.83749222217E+02  0.12500000000E+03  0.80419002446E+02 0. -1.
</event>
<event>
 4    1  0.1599584E-001  0.1250000E+03  0.7546771E-02  0.1126479E+00
        -11   -1    0    0    0    0  0.00000000000E+00  0.00000000000E+00  0.12500000000E+03  0.12500000000E+03  0.00000000000E+00 0.  1.
         11   -1    0    0    0    0 -0.00000000000E+00 -0.00000000000E+00 -0.12500000000E+03  0.12500000000E+03  0.00000000000E+00 0. -1.
         24    1    1    2    0    0  0.36594262303E+02 -0.85671559631E+02  0.21886705613E+02  0.12500000000E+03  0.80419002446E+02 0. -1.
        -24    1    1    2    0    0 -0.36594262303E+02  0.85671559631E+02 -0.21886705613E+02  0.12500000000E+03  0.80419002446E+02 0.  1.
</event>
<event>
 4    1  0.1599584E-001  0.1250000E+03  0.7546771E-02  0.1126479E+00
        -11   -1    0    0    0    0  0.00000000000E+00  0.00000000000E+00  0.12500000000E+03  0.12500000000E+03  0.00000000000E+00 0.  1.
         11   -1    0    0    0    0 -0.00000000000E+00 -0.00000000000E+00 -0.12500000000E+03  0.12500000000E+03  0.00000000000E+00 0. -1.
         24    1    1    2    0    0  0.29760217394E+02 -0.27350531197E+01  0.90910026899E+02  0.12500000000E+03  0.80419002446E+02 0.  1.
        -24    1    1    2    0    0 -0.29760217394E+02  0.27350531197E+01 -0.90910026899E+02  0.12500000000E+03  0.80419002446E+02 0. -1.
</event>
<event>
 4    1  0.1599584E-001  0.1250000E+03  0.7546771E-02  0.1126479E+00
        -11   -1    0    0    0    0  0.00000000000E+00  0.00000000000E+00  0.12500000000E+03  0.12500000000E+03  0.00000000000E+00 0.  1.
         11   -1    0    0    0    0 -0.00000000000E+00 -0.00000000000E+00 -0.12500000000E+03  0.12500000000E+03  0.00000000000E+00 0. -1.
         24    1    1    2    0    0 -0.14590363599E+02 -0.17800136373E+02  0.92887353718E+02  0.12500000000E+03  0.80419002446E+02 0.  1.
        -24    1    1    2    0    0  0.14590363599E+02  0.17800136373E+02 -0.92887353718E+02  0.12500000000E+03  0.80419002446E+02 0. -1.
</event>
<event>
 4    1  0.1599584E-001  0.1250000E+03  0.7546771E-02  0.1126479E+00
        -11   -1    0    0    0    0  0.00000000000E+00  0.00000000000E+00  0.12500000000E+03  0.12500000000E+03  0.00000000000E+00 0.  1.
         11   -1    0    0    0    0 -0.00000000000E+00 -0.00000000000E+00 -0.12500000000E+03  0.12500000000E+03  0.00000000000E+00 0. -1.
         24    1    1    2    0    0 -0.88794726970E+02  0.17179904796E+02  0.31275091993E+02  0.12500000000E+03  0.80419002446E+02 0. -1.
        -24    1    1    2    0    0  0.88794726970E+02 -0.17179904796E+02 -0.31275091993E+02  0.12500000000E+03  0.80419002446E+02 0.  1.
</event>
<event>
 4    1  0.1599584E-001  0.1250000E+03  0.7546771E-02  0.1126479E+00
        -11   -1    0    0    0    0  0.00000000000E+00  0.00000000000E+00  0.12500000000E+03  0.12500000000E+03  0.00000000000E+00 0.  1.
         11   -1    0    0    0    0 -0.00000000000E+00 -0.00000000000E+00 -0.12500000000E+03  0.12500000000E+03  0.00000000000E+00 0. -1.
         24    1    1    2    0    0 -0.29282919737E+02  0.91941550552E+00  0.91101313560E+02  0.12500000000E+03  0.80419002446E+02 0.  1.
        -24    1    1    2    0    0  0.29282919737E+02 -0.91941550552E+00 -0.91101313560E+02  0.12500000000E+03  0.80419002446E+02 0. -1.
</event>
<event>
 4    1  0.1599584E-001  0.1250000E+03  0.7546771E-02  0.1126479E+00
        -11   -1    0    0    0    0  0.00000000000E+00  0.00000000000E+00  0.12500000000E+03  0.12500000000E+03  0.00000000000E+00 0.  1.
         11   -1    0    0    0    0 -0.00000000000E+00 -0.00000000000E+00 -0.12500000000E+03  0.12500000000E+03  0.00000000000E+00 0. -1.
         24    1    1    2    0    0  0.87334123849E+01  0.34640279808E+02  0.88778164931E+02  0.12500000000E+03  0.80419002446E+02 0.  1.
        -24    1    1    2    0    0 -0.87334123849E+01 -0.34640279808E+02 -0.88778164931E+02  0.12500000000E+03  0.80419002446E+02 0. -1.
</event>
<event>
 4    1  0.1599584E-001  0.1250000E+03  0.7546771E-02  0.1126479E+00
        -11   -1    0    0    0    0  0.00000000000E+00  0.00000000000E+00  0.12500000000E+03  0.12500000000E+03  0.00000000000E+00 0.  1.
         11   -1    0    0    0    0 -0.00000000000E+00 -0.00000000000E+00 -0.12500000000E+03  0.12500000000E+03  0.00000000000E+00 0. -1.
         24    1    1    2    0    0  0.26243545302E+02 -0.79735985515E+01  0.91681416338E+02  0.12500000000E+03  0.80419002446E+02 0.  1.
        -24    1    1    2    0    0 -0.26243545302E+02  0.79735985515E+01 -0.91681416338E+02  0.12500000000E+03  0.80419002446E+02 0. -1.
</event>
<event>
 4    1  0.1599584E-001  0.1250000E+03  0.7546771E-02  0.1126479E+00
        -11   -1    0    0    0    0  0.00000000000E+00  0.00000000000E+00  0.12500000000E+03  0.12500000000E+03  0.00000000000E+00 0.  1.
         11   -1    0    0    0    0 -0.00000000000E+00 -0.00000000000E+00 -0.12500000000E+03  0.12500000000E+03  0.00000000000E+00 0. -1.
         24    1    1    2    0    0 -0.12541586119E+02  0.44225151831E+02  0.83932285855E+02  0.12500000000E+03  0.80419002446E+02 0.  1.
        -24    1    1    2    0    0  0.12541586119E+02 -0.44225151831E+02 -0.83932285855E+02  0.12500000000E+03  0.80419002446E+02 0. -1.
</event>
<event>
 4    1  0.1599584E-001  0.1250000E+03  0.7546771E-02  0.1126479E+00
        -11   -1    0    0    0    0  0.00000000000E+00  0.00000000000E+00  0.12500000000E+03  0.12500000000E+03  0.00000000000E+00 0.  1.
         11   -1    0    0    0    0 -0.00000000000E+00 -0.00000000000E+00 -0.12500000000E+03  0.12500000000E+03  0.00000000000E+00 0. -1.
         24    1    1    2    0    0  0.22328251323E+02 -0.59071776055E+02  0.71901032762E+02  0.12500000000E+03  0.80419002446E+02 0.  1.
        -24    1    1    2    0    0 -0.22328251323E+02  0.59071776055E+02 -0.71901032762E+02  0.12500000000E+03  0.80419002446E+02 0. -1.
</event>
<event>
 4    1  0.1599584E-001  0.1250000E+03  0.7546771E-02  0.1126479E+00
        -11   -1    0    0    0    0  0.00000000000E+00  0.00000000000E+00  0.12500000000E+03  0.12500000000E+03  0.00000000000E+00 0.  1.
         11   -1    0    0    0    0 -0.00000000000E+00 -0.00000000000E+00 -0.12500000000E+03  0.12500000000E+03  0.00000000000E+00 0. -1.
         24    1    1    2    0    0  0.35656048314E+02 -0.16881285838E+02  0.87186308860E+02  0.12500000000E+03  0.80419002446E+02 0.  1.
        -24    1    1    2    0    0 -0.35656048314E+02  0.16881285838E+02 -0.87186308860E+02  0.12500000000E+03  0.80419002446E+02 0. -1.
</event>
<event>
 4    1  0.1599584E-001  0.1250000E+03  0.7546771E-02  0.1126479E+00
        -11   -1    0    0    0    0  0.00000000000E+00  0.00000000000E+00  0.12500000000E+03  0.12500000000E+03  0.00000000000E+00 0.  1.
         11   -1    0    0    0    0 -0.00000000000E+00 -0.00000000000E+00 -0.12500000000E+03  0.12500000000E+03  0.00000000000E+00 0. -1.
         24    1    1    2    0    0  0.26328675037E+02 -0.12739767757E+02  0.91116865804E+02  0.12500000000E+03  0.80419002446E+02 0.  1.
        -24    1    1    2    0    0 -0.26328675037E+02  0.12739767757E+02 -0.91116865804E+02  0.12500000000E+03  0.80419002446E+02 0. -1.
</event>
<event>
 4    1  0.1599584E-001  0.1250000E+03  0.7546771E-02  0.1126479E+00
        -11   -1    0    0    0    0  0.00000000000E+00  0.00000000000E+00  0.12500000000E+03  0.12500000000E+03  0.00000000000E+00 0.  1.
         11   -1    0    0    0    0 -0.00000000000E+00 -0.00000000000E+00 -0.12500000000E+03  0.12500000000E+03  0.00000000000E+00 0. -1.
         24    1    1    2    0    0  0.16202022664E+02  0.44536804989E+02  0.83136944306E+02  0.12500000000E+03  0.80419002446E+02 0.  1.
        -24    1    1    2    0    0 -0.16202022664E+02 -0.44536804989E+02 -0.83136944306E+02  0.12500000000E+03  0.80419002446E+02 0. -1.
</event>
<event>
 4    1  0.1599584E-001  0.1250000E+03  0.7546771E-02  0.1126479E+00
        -11   -1    0    0    0    0  0.00000000000E+00  0.00000000000E+00  0.12500000000E+03  0.12500000000E+03  0.00000000000E+00 0.  1.
         11   -1    0    0    0    0 -0.00000000000E+00 -0.00000000000E+00 -0.12500000000E+03  0.12500000000E+03  0.00000000000E+00 0. -1.
         24    1    1    2    0    0 -0.20829867194E+02  0.14027001304E+02  0.92342535772E+02  0.12500000000E+03  0.80419002446E+02 0.  1.
        -24    1    1    2    0    0  0.20829867194E+02 -0.14027001304E+02 -0.92342535772E+02  0.12500000000E+03  0.80419002446E+02 0. -1.
</event>
<event>
 4    1  0.1599584E-001  0.1250000E+03  0.7546771E-02  0.1126479E+00
        -11   -1    0    0    0    0  0.00000000000E+00  0.00000000000E+00  0.12500000000E+03  0.12500000000E+03  0.00000000000E+00 0.  1.
         11   -1    0    0    0    0 -0.00000000000E+00 -0.00000000000E+00 -0.12500000000E+03  0.12500000000E+03  0.00000000000E+00 0. -1.
         24    1    1    2    0    0 -0.17377736267E+02  0.85614367486E+02  0.39063773599E+02  0.12500000000E+03  0.80419002446E+02 0.  1.
        -24    1    1    2    0    0  0.17377736267E+02 -0.85614367486E+02 -0.39063773599E+02  0.12500000000E+03  0.80419002446E+02 0. -1.
</event>
<event>
 4    1  0.1599584E-001  0.1250000E+03  0.7546771E-02  0.1126479E+00
        -11   -1    0    0    0    0  0.00000000000E+00  0.00000000000E+00  0.12500000000E+03  0.12500000000E+03  0.00000000000E+00 0.  1.
         11   -1    0    0    0    0 -0.00000000000E+00 -0.00000000000E+00 -0.12500000000E+03  0.12500000000E+03  0.00000000000E+00 0. -1.
         24    1    1    2    0    0  0.23658665854E+02  0.15070828449E+02  0.91492741272E+02  0.12500000000E+03  0.80419002446E+02 0.  1.
        -24    1    1    2    0    0 -0.23658665854E+02 -0.15070828449E+02 -0.91492741272E+02  0.12500000000E+03  0.80419002446E+02 0. -1.
</event>
<event>
 4    1  0.1599584E-001  0.1250000E+03  0.7546771E-02  0.1126479E+00
        -11   -1    0    0    0    0  0.00000000000E+00  0.00000000000E+00  0.12500000000E+03  0.12500000000E+03  0.00000000000E+00 0.  1.
         11   -1    0    0    0    0 -0.00000000000E+00 -0.00000000000E+00 -0.12500000000E+03  0.12500000000E+03  0.00000000000E+00 0. -1.
         24    1    1    2    0    0 -0.41201165949E+02 -0.22122036478E+01  0.86344392551E+02  0.12500000000E+03  0.80419002446E+02 0.  1.
        -24    1    1    2    0    0  0.41201165949E+02  0.22122036478E+01 -0.86344392551E+02  0.12500000000E+03  0.80419002446E+02 0. -1.
</event>
<event>
 4    1  0.1599584E-001  0.1250000E+03  0.7546771E-02  0.1126479E+00
        -11   -1    0    0    0    0  0.00000000000E+00  0.00000000000E+00  0.12500000000E+03  0.12500000000E+03  0.00000000000E+00 0.  1.
         11   -1    0    0    0    0 -0.00000000000E+00 -0.00000000000E+00 -0.12500000000E+03  0.12500000000E+03  0.00000000000E+00 0. -1.
         24    1    1    2    0    0 -0.15438894299E+02  0.20875806353E+02  0.92106597470E+02  0.12500000000E+03  0.80419002446E+02 0.  1.
        -24    1    1    2    0    0  0.15438894299E+02 -0.20875806353E+02 -0.92106597470E+02  0.12500000000E+03  0.80419002446E+02 0. -1.
</event>
<event>
 4    1  0.1599584E-001  0.1250000E+03  0.7546771E-02  0.1126479E+00
        -11   -1    0    0    0    0  0.00000000000E+00  0.00000000000E+00  0.12500000000E+03  0.12500000000E+03  0.00000000000E+00 0.  1.
         11   -1    0    0    0    0 -0.00000000000E+00 -0.00000000000E+00 -0.12500000000E+03  0.12500000000E+03  0.00000000000E+00 0. -1.
         24    1    1    2    0    0 -0.91909717355E+02 -0.26384428948E+02  0.37748921008E+01  0.12500000000E+03  0.80419002446E+02 0.  0.
        -24    1    1    2    0    0  0.91909717355E+02  0.26384428948E+02 -0.37748921008E+01  0.12500000000E+03  0.80419002446E+02 0.  0.
</event>
<event>
 4    1  0.1599584E-001  0.1250000E+03  0.7546771E-02  0.1126479E+00
        -11   -1    0    0    0    0  0.00000000000E+00  0.00000000000E+00  0.12500000000E+03  0.12500000000E+03  0.00000000000E+00 0.  1.
         11   -1    0    0    0    0 -0.00000000000E+00 -0.00000000000E+00 -0.12500000000E+03  0.12500000000E+03  0.00000000000E+00 0. -1.
         24    1    1    2    0    0  0.25445484694E+02 -0.13244845130E+02  0.91295593715E+02  0.12500000000E+03  0.80419002446E+02 0.  1.
        -24    1    1    2    0    0 -0.25445484694E+02  0.13244845130E+02 -0.91295593715E+02  0.12500000000E+03  0.80419002446E+02 0. -1.
</event>
<event>
 4    1  0.1599584E-001  0.1250000E+03  0.7546771E-02  0.1126479E+00
        -11   -1    0    0    0    0  0.00000000000E+00  0.00000000000E+00  0.12500000000E+03  0.12500000000E+03  0.00000000000E+00 0.  1.
         11   -1    0    0    0    0 -0.00000000000E+00 -0.00000000000E+00 -0.12500000000E+03  0.12500000000E+03  0.00000000000E+00 0. -1.
         24    1    1    2    0    0  0.19924532204E+02  0.72512426618E+01  0.93317825424E+02  0.12500000000E+03  0.80419002446E+02 0.  1.
        -24    1    1    2    0    0 -0.19924532204E+02 -0.72512426618E+01 -0.93317825424E+02  0.12500000000E+03  0.80419002446E+02 0. -1.
</event>
<event>
 4    1  0.1599584E-001  0.1250000E+03  0.7546771E-02  0.1126479E+00
        -11   -1    0    0    0    0  0.00000000000E+00  0.00000000000E+00  0.12500000000E+03  0.12500000000E+03  0.00000000000E+00 0.  1.
         11   -1    0    0    0    0 -0.00000000000E+00 -0.00000000000E+00 -0.12500000000E+03  0.12500000000E+03  0.00000000000E+00 0. -1.
         24    1    1    2    0    0 -0.13799979833E+02 -0.36610915167E+02 -0.87332614142E+02  0.12500000000E+03  0.80419002446E+02 0. -1.
        -24    1    1    2    0    0  0.13799979833E+02  0.36610915167E+02  0.87332614142E+02  0.12500000000E+03  0.80419002446E+02 0.  1.
</event>
<event>
 4    1  0.1599584E-001  0.1250000E+03  0.7546771E-02  0.1126479E+00
        -11   -1    0    0    0    0  0.00000000000E+00  0.00000000000E+00  0.12500000000E+03  0.12500000000E+03  0.00000000000E+00 0.  1.
         11   -1    0    0    0    0 -0.00000000000E+00 -0.00000000000E+00 -0.12500000000E+03  0.12500000000E+03  0.00000000000E+00 0. -1.
         24    1    1    2    0    0 -0.30258418559E+02 -0.64315099393E+02  0.64076361803E+02  0.12500000000E+03  0.80419002446E+02 0.  1.
        -24    1    1    2    0    0  0.30258418559E+02  0.64315099393E+02 -0.64076361803E+02  0.12500000000E+03  0.80419002446E+02 0. -1.
</event>
<event>
 4    1  0.1599584E-001  0.1250000E+03  0.7546771E-02  0.1126479E+00
        -11   -1    0    0    0    0  0.00000000000E+00  0.00000000000E+00  0.12500000000E+03  0.12500000000E+03  0.00000000000E+00 0.  1.
         11   -1    0    0    0    0 -0.00000000000E+00 -0.00000000000E+00 -0.12500000000E+03  0.12500000000E+03  0.00000000000E+00 0. -1.
         24    1    1    2    0    0 -0.40776981935E+02 -0.42577575712E+01  0.86469030816E+02  0.12500000000E+03  0.80419002446E+02 0.  0.
        -24    1    1    2    0    0  0.40776981935E+02  0.42577575712E+01 -0.86469030816E+02  0.12500000000E+03  0.80419002446E+02 0.  1.
</event>
<event>
 4    1  0.1599584E-001  0.1250000E+03  0.7546771E-02  0.1126479E+00
        -11   -1    0    0    0    0  0.00000000000E+00  0.00000000000E+00  0.12500000000E+03  0.12500000000E+03  0.00000000000E+00 0.  1.
         11   -1    0    0    0    0 -0.00000000000E+00 -0.00000000000E+00 -0.12500000000E+03  0.12500000000E+03  0.00000000000E+00 0. -1.
         24    1    1    2    0    0  0.84985180646E+02 -0.14215312536E+02  0.41632055027E+02  0.12500000000E+03  0.80419002446E+02 0.  1.
        -24    1    1    2    0    0 -0.84985180646E+02  0.14215312536E+02 -0.41632055027E+02  0.12500000000E+03  0.80419002446E+02 0. -1.
</event>
<event>
 4    1  0.1599584E-001  0.1250000E+03  0.7546771E-02  0.1126479E+00
        -11   -1    0    0    0    0  0.00000000000E+00  0.00000000000E+00  0.12500000000E+03  0.12500000000E+03  0.00000000000E+00 0.  1.
         11   -1    0    0    0    0 -0.00000000000E+00 -0.00000000000E+00 -0.12500000000E+03  0.12500000000E+03  0.00000000000E+00 0. -1.
         24    1    1    2    0    0  0.60772356320E+02 -0.73517117822E+02  0.77290452262E+01  0.12500000000E+03  0.80419002446E+02 0.  1.
        -24    1    1    2    0    0 -0.60772356320E+02  0.73517117822E+02 -0.77290452262E+01  0.12500000000E+03  0.80419002446E+02 0. -1.
</event>
<event>
 4    1  0.1599584E-001  0.1250000E+03  0.7546771E-02  0.1126479E+00
        -11   -1    0    0    0    0  0.00000000000E+00  0.00000000000E+00  0.12500000000E+03  0.12500000000E+03  0.00000000000E+00 0.  1.
         11   -1    0    0    0    0 -0.00000000000E+00 -0.00000000000E+00 -0.12500000000E+03  0.12500000000E+03  0.00000000000E+00 0. -1.
         24    1    1    2    0    0  0.47219943682E+02 -0.23884192836E+02  0.79734599121E+02  0.12500000000E+03  0.80419002446E+02 0.  0.
        -24    1    1    2    0    0 -0.47219943682E+02  0.23884192836E+02 -0.79734599121E+02  0.12500000000E+03  0.80419002446E+02 0.  0.
</event>
<event>
 4    1  0.1599584E-001  0.1250000E+03  0.7546771E-02  0.1126479E+00
        -11   -1    0    0    0    0  0.00000000000E+00  0.00000000000E+00  0.12500000000E+03  0.12500000000E+03  0.00000000000E+00 0.  1.
         11   -1    0    0    0    0 -0.00000000000E+00 -0.00000000000E+00 -0.12500000000E+03  0.12500000000E+03  0.00000000000E+00 0. -1.
         24    1    1    2    0    0 -0.18902503775E+02  0.43093040012E+02  0.83327482256E+02  0.12500000000E+03  0.80419002446E+02 0.  1.
        -24    1    1    2    0    0  0.18902503775E+02 -0.43093040012E+02 -0.83327482256E+02  0.12500000000E+03  0.80419002446E+02 0. -1.
</event>
<event>
 4    1  0.1599584E-001  0.1250000E+03  0.7546771E-02  0.1126479E+00
        -11   -1    0    0    0    0  0.00000000000E+00  0.00000000000E+00  0.12500000000E+03  0.12500000000E+03  0.00000000000E+00 0.  1.
         11   -1    0    0    0    0 -0.00000000000E+00 -0.00000000000E+00 -0.12500000000E+03  0.12500000000E+03  0.00000000000E+00 0. -1.
         24    1    1    2    0    0 -0.94332892842E+01 -0.20510792098E+02  0.92995185394E+02  0.12500000000E+03  0.80419002446E+02 0.  1.
        -24    1    1    2    0    0  0.94332892842E+01  0.20510792098E+02 -0.92995185394E+02  0.12500000000E+03  0.80419002446E+02 0. -1.
</event>
<event>
 4    1  0.1599584E-001  0.1250000E+03  0.7546771E-02  0.1126479E+00
        -11   -1    0    0    0    0  0.00000000000E+00  0.00000000000E+00  0.12500000000E+03  0.12500000000E+03  0.00000000000E+00 0.  1.
         11   -1    0    0    0    0 -0.00000000000E+00 -0.00000000000E+00 -0.12500000000E+03  0.12500000000E+03  0.00000000000E+00 0. -1.
         24    1    1    2    0    0  0.62974761846E+01  0.24504739716E+02  0.92291080667E+02  0.12500000000E+03  0.80419002446E+02 0.  1.
        -24    1    1    2    0    0 -0.62974761846E+01 -0.24504739716E+02 -0.92291080667E+02  0.12500000000E+03  0.80419002446E+02 0. -1.
</event>
<event>
 4    1  0.1599584E-001  0.1250000E+03  0.7546771E-02  0.1126479E+00
        -11   -1    0    0    0    0  0.00000000000E+00  0.00000000000E+00  0.12500000000E+03  0.12500000000E+03  0.00000000000E+00 0.  1.
         11   -1    0    0    0    0 -0.00000000000E+00 -0.00000000000E+00 -0.12500000000E+03  0.12500000000E+03  0.00000000000E+00 0. -1.
         24    1    1    2    0    0  0.62042879164E+02 -0.71240677353E+02  0.15271904956E+02  0.12500000000E+03  0.80419002446E+02 0.  1.
        -24    1    1    2    0    0 -0.62042879164E+02  0.71240677353E+02 -0.15271904956E+02  0.12500000000E+03  0.80419002446E+02 0. -1.
</event>
<event>
 4    1  0.1599584E-001  0.1250000E+03  0.7546771E-02  0.1126479E+00
        -11   -1    0    0    0    0  0.00000000000E+00  0.00000000000E+00  0.12500000000E+03  0.12500000000E+03  0.00000000000E+00 0.  1.
         11   -1    0    0    0    0 -0.00000000000E+00 -0.00000000000E+00 -0.12500000000E+03  0.12500000000E+03  0.00000000000E+00 0. -1.
         24    1    1    2    0    0  0.77687335371E+01 -0.39414852057E+02  0.86855628846E+02  0.12500000000E+03  0.80419002446E+02 0.  1.
        -24    1    1    2    0    0 -0.77687335371E+01  0.39414852057E+02 -0.86855628846E+02  0.12500000000E+03  0.80419002446E+02 0. -1.
</event>
<event>
 4    1  0.1599584E-001  0.1250000E+03  0.7546771E-02  0.1126479E+00
        -11   -1    0    0    0    0  0.00000000000E+00  0.00000000000E+00  0.12500000000E+03  0.12500000000E+03  0.00000000000E+00 0.  1.
         11   -1    0    0    0    0 -0.00000000000E+00 -0.00000000000E+00 -0.12500000000E+03  0.12500000000E+03  0.00000000000E+00 0. -1.
         24    1    1    2    0    0  0.47643720427E+02  0.34041349154E+02  0.75690465035E+02  0.12500000000E+03  0.80419002446E+02 0.  1.
        -24    1    1    2    0    0 -0.47643720427E+02 -0.34041349154E+02 -0.75690465035E+02  0.12500000000E+03  0.80419002446E+02 0. -1.
</event>
<event>
 4    1  0.1599584E-001  0.1250000E+03  0.7546771E-02  0.1126479E+00
        -11   -1    0    0    0    0  0.00000000000E+00  0.00000000000E+00  0.12500000000E+03  0.12500000000E+03  0.00000000000E+00 0.  1.
         11   -1    0    0    0    0 -0.00000000000E+00 -0.00000000000E+00 -0.12500000000E+03  0.12500000000E+03  0.00000000000E+00 0. -1.
         24    1    1    2    0    0  0.85924858181E+02  0.31959989770E+02  0.27445616156E+02  0.12500000000E+03  0.80419002446E+02 0.  0.
        -24    1    1    2    0    0 -0.85924858181E+02 -0.31959989770E+02 -0.27445616156E+02  0.12500000000E+03  0.80419002446E+02 0. -1.
</event>
<event>
 4    1  0.1599584E-001  0.1250000E+03  0.7546771E-02  0.1126479E+00
        -11   -1    0    0    0    0  0.00000000000E+00  0.00000000000E+00  0.12500000000E+03  0.12500000000E+03  0.00000000000E+00 0.  1.
         11   -1    0    0    0    0 -0.00000000000E+00 -0.00000000000E+00 -0.12500000000E+03  0.12500000000E+03  0.00000000000E+00 0. -1.
         24    1    1    2    0    0 -0.59891337271E+02 -0.89820244588E+01  0.74095445218E+02  0.12500000000E+03  0.80419002446E+02 0. -1.
        -24    1    1    2    0    0  0.59891337271E+02  0.89820244588E+01 -0.74095445218E+02  0.12500000000E+03  0.80419002446E+02 0.  0.
</event>
<event>
 4    1  0.1599584E-001  0.1250000E+03  0.7546771E-02  0.1126479E+00
        -11   -1    0    0    0    0  0.00000000000E+00  0.00000000000E+00  0.12500000000E+03  0.12500000000E+03  0.00000000000E+00 0.  1.
         11   -1    0    0    0    0 -0.00000000000E+00 -0.00000000000E+00 -0.12500000000E+03  0.12500000000E+03  0.00000000000E+00 0. -1.
         24    1    1    2    0    0  0.24965362787E+02  0.44242002850E+02  0.81099691062E+02  0.12500000000E+03  0.80419002446E+02 0.  1.
        -24    1    1    2    0    0 -0.24965362787E+02 -0.44242002850E+02 -0.81099691062E+02  0.12500000000E+03  0.80419002446E+02 0. -1.
</event>
<event>
 4    1  0.1599584E-001  0.1250000E+03  0.7546771E-02  0.1126479E+00
        -11   -1    0    0    0    0  0.00000000000E+00  0.00000000000E+00  0.12500000000E+03  0.12500000000E+03  0.00000000000E+00 0.  1.
         11   -1    0    0    0    0 -0.00000000000E+00 -0.00000000000E+00 -0.12500000000E+03  0.12500000000E+03  0.00000000000E+00 0. -1.
         24    1    1    2    0    0  0.54568090030E+02  0.20687501792E+02  0.75842830022E+02  0.12500000000E+03  0.80419002446E+02 0.  1.
        -24    1    1    2    0    0 -0.54568090030E+02 -0.20687501792E+02 -0.75842830022E+02  0.12500000000E+03  0.80419002446E+02 0. -1.
</event>
<event>
 4    1  0.1599584E-001  0.1250000E+03  0.7546771E-02  0.1126479E+00
        -11   -1    0    0    0    0  0.00000000000E+00  0.00000000000E+00  0.12500000000E+03  0.12500000000E+03  0.00000000000E+00 0.  1.
         11   -1    0    0    0    0 -0.00000000000E+00 -0.00000000000E+00 -0.12500000000E+03  0.12500000000E+03  0.00000000000E+00 0. -1.
         24    1    1    2    0    0  0.23163654713E+02  0.12992742900E+02  0.91937031592E+02  0.12500000000E+03  0.80419002446E+02 0.  1.
        -24    1    1    2    0    0 -0.23163654713E+02 -0.12992742900E+02 -0.91937031592E+02  0.12500000000E+03  0.80419002446E+02 0.  0.
</event>
<event>
 4    1  0.1599584E-001  0.1250000E+03  0.7546771E-02  0.1126479E+00
        -11   -1    0    0    0    0  0.00000000000E+00  0.00000000000E+00  0.12500000000E+03  0.12500000000E+03  0.00000000000E+00 0.  1.
         11   -1    0    0    0    0 -0.00000000000E+00 -0.00000000000E+00 -0.12500000000E+03  0.12500000000E+03  0.00000000000E+00 0. -1.
         24    1    1    2    0    0  0.23656243167E+02 -0.63373964804E+02  0.67689783497E+02  0.12500000000E+03  0.80419002446E+02 0.  1.
        -24    1    1    2    0    0 -0.23656243167E+02  0.63373964804E+02 -0.67689783497E+02  0.12500000000E+03  0.80419002446E+02 0. -1.
</event>
<event>
 4    1  0.1599584E-001  0.1250000E+03  0.7546771E-02  0.1126479E+00
        -11   -1    0    0    0    0  0.00000000000E+00  0.00000000000E+00  0.12500000000E+03  0.12500000000E+03  0.00000000000E+00 0.  1.
         11   -1    0    0    0    0 -0.00000000000E+00 -0.00000000000E+00 -0.12500000000E+03  0.12500000000E+03  0.00000000000E+00 0. -1.
         24    1    1    2    0    0 -0.59085751125E+02 -0.71138763172E+02  0.24615735497E+02  0.12500000000E+03  0.80419002446E+02 0.  1.
        -24    1    1    2    0    0  0.59085751125E+02  0.71138763172E+02 -0.24615735497E+02  0.12500000000E+03  0.80419002446E+02 0.  0.
</event>
<event>
 4    1  0.1599584E-001  0.1250000E+03  0.7546771E-02  0.1126479E+00
        -11   -1    0    0    0    0  0.00000000000E+00  0.00000000000E+00  0.12500000000E+03  0.12500000000E+03  0.00000000000E+00 0.  1.
         11   -1    0    0    0    0 -0.00000000000E+00 -0.00000000000E+00 -0.12500000000E+03  0.12500000000E+03  0.00000000000E+00 0. -1.
         24    1    1    2    0    0 -0.79149842593E+02 -0.53410178711E+02 -0.63591880972E+01  0.12500000000E+03  0.80419002446E+02 0.  1.
        -24    1    1    2    0    0  0.79149842593E+02  0.53410178711E+02  0.63591880972E+01  0.12500000000E+03  0.80419002446E+02 0.  0.
</event>
<event>
 4    1  0.1599584E-001  0.1250000E+03  0.7546771E-02  0.1126479E+00
        -11   -1    0    0    0    0  0.00000000000E+00  0.00000000000E+00  0.12500000000E+03  0.12500000000E+03  0.00000000000E+00 0.  1.
         11   -1    0    0    0    0 -0.00000000000E+00 -0.00000000000E+00 -0.12500000000E+03  0.12500000000E+03  0.00000000000E+00 0. -1.
         24    1    1    2    0    0 -0.50231822875E+02 -0.46783522869E+02  0.66677207532E+02  0.12500000000E+03  0.80419002446E+02 0.  1.
        -24    1    1    2    0    0  0.50231822875E+02  0.46783522869E+02 -0.66677207532E+02  0.12500000000E+03  0.80419002446E+02 0. -1.
</event>
<event>
 4    1  0.1599584E-001  0.1250000E+03  0.7546771E-02  0.1126479E+00
        -11   -1    0    0    0    0  0.00000000000E+00  0.00000000000E+00  0.12500000000E+03  0.12500000000E+03  0.00000000000E+00 0.  1.
         11   -1    0    0    0    0 -0.00000000000E+00 -0.00000000000E+00 -0.12500000000E+03  0.12500000000E+03  0.00000000000E+00 0. -1.
         24    1    1    2    0    0 -0.36673249083E+02  0.26147961419E+02  0.84434240453E+02  0.12500000000E+03  0.80419002446E+02 0.  1.
        -24    1    1    2    0    0  0.36673249083E+02 -0.26147961419E+02 -0.84434240453E+02  0.12500000000E+03  0.80419002446E+02 0. -1.
</event>
<event>
 4    1  0.1599584E-001  0.1250000E+03  0.7546771E-02  0.1126479E+00
        -11   -1    0    0    0    0  0.00000000000E+00  0.00000000000E+00  0.12500000000E+03  0.12500000000E+03  0.00000000000E+00 0.  1.
         11   -1    0    0    0    0 -0.00000000000E+00 -0.00000000000E+00 -0.12500000000E+03  0.12500000000E+03  0.00000000000E+00 0. -1.
         24    1    1    2    0    0  0.48604851916E+02 -0.82250701457E+02  0.54931344176E+01  0.12500000000E+03  0.80419002446E+02 0.  0.
        -24    1    1    2    0    0 -0.48604851916E+02  0.82250701457E+02 -0.54931344176E+01  0.12500000000E+03  0.80419002446E+02 0. -1.
</event>
<event>
 4    1  0.1599584E-001  0.1250000E+03  0.7546771E-02  0.1126479E+00
        -11   -1    0    0    0    0  0.00000000000E+00  0.00000000000E+00  0.12500000000E+03  0.12500000000E+03  0.00000000000E+00 0.  1.
         11   -1    0    0    0    0 -0.00000000000E+00 -0.00000000000E+00 -0.12500000000E+03  0.12500000000E+03  0.00000000000E+00 0. -1.
         24    1    1    2    0    0  0.32397489118E+02  0.30962270335E+00  0.90044938105E+02  0.12500000000E+03  0.80419002446E+02 0.  1.
        -24    1    1    2    0    0 -0.32397489118E+02 -0.30962270335E+00 -0.90044938105E+02  0.12500000000E+03  0.80419002446E+02 0. -1.
</event>
<event>
 4    1  0.1599584E-001  0.1250000E+03  0.7546771E-02  0.1126479E+00
        -11   -1    0    0    0    0  0.00000000000E+00  0.00000000000E+00  0.12500000000E+03  0.12500000000E+03  0.00000000000E+00 0.  1.
         11   -1    0    0    0    0 -0.00000000000E+00 -0.00000000000E+00 -0.12500000000E+03  0.12500000000E+03  0.00000000000E+00 0. -1.
         24    1    1    2    0    0  0.52199225143E+02 -0.41699563679E+02  0.68514022864E+02  0.12500000000E+03  0.80419002446E+02 0.  0.
        -24    1    1    2    0    0 -0.52199225143E+02  0.41699563679E+02 -0.68514022864E+02  0.12500000000E+03  0.80419002446E+02 0.  1.
</event>
<event>
 4    1  0.1599584E-001  0.1250000E+03  0.7546771E-02  0.1126479E+00
        -11   -1    0    0    0    0  0.00000000000E+00  0.00000000000E+00  0.12500000000E+03  0.12500000000E+03  0.00000000000E+00 0.  1.
         11   -1    0    0    0    0 -0.00000000000E+00 -0.00000000000E+00 -0.12500000000E+03  0.12500000000E+03  0.00000000000E+00 0. -1.
         24    1    1    2    0    0 -0.26711284801E+02  0.37791791835E+02  0.83761994841E+02  0.12500000000E+03  0.80419002446E+02 0.  1.
        -24    1    1    2    0    0  0.26711284801E+02 -0.37791791835E+02 -0.83761994841E+02  0.12500000000E+03  0.80419002446E+02 0. -1.
</event>
<event>
 4    1  0.1599584E-001  0.1250000E+03  0.7546771E-02  0.1126479E+00
        -11   -1    0    0    0    0  0.00000000000E+00  0.00000000000E+00  0.12500000000E+03  0.12500000000E+03  0.00000000000E+00 0.  1.
         11   -1    0    0    0    0 -0.00000000000E+00 -0.00000000000E+00 -0.12500000000E+03  0.12500000000E+03  0.00000000000E+00 0. -1.
         24    1    1    2    0    0  0.10230271569E+02 -0.22849715954E+01  0.95120473580E+02  0.12500000000E+03  0.80419002446E+02 0.  0.
        -24    1    1    2    0    0 -0.10230271569E+02  0.22849715954E+01 -0.95120473580E+02  0.12500000000E+03  0.80419002446E+02 0. -1.
</event>
<event>
 4    1  0.1599584E-001  0.1250000E+03  0.7546771E-02  0.1126479E+00
        -11   -1    0    0    0    0  0.00000000000E+00  0.00000000000E+00  0.12500000000E+03  0.12500000000E+03  0.00000000000E+00 0.  1.
         11   -1    0    0    0    0 -0.00000000000E+00 -0.00000000000E+00 -0.12500000000E+03  0.12500000000E+03  0.00000000000E+00 0. -1.
         24    1    1    2    0    0  0.39118401150E+02 -0.24299124606E+02  0.83887348751E+02  0.12500000000E+03  0.80419002446E+02 0.  1.
        -24    1    1    2    0    0 -0.39118401150E+02  0.24299124606E+02 -0.83887348751E+02  0.12500000000E+03  0.80419002446E+02 0. -1.
</event>
<event>
 4    1  0.1599584E-001  0.1250000E+03  0.7546771E-02  0.1126479E+00
        -11   -1    0    0    0    0  0.00000000000E+00  0.00000000000E+00  0.12500000000E+03  0.12500000000E+03  0.00000000000E+00 0.  1.
         11   -1    0    0    0    0 -0.00000000000E+00 -0.00000000000E+00 -0.12500000000E+03  0.12500000000E+03  0.00000000000E+00 0. -1.
         24    1    1    2    0    0  0.16498819810E+02  0.41887123402E+02  0.84445496527E+02  0.12500000000E+03  0.80419002446E+02 0.  1.
        -24    1    1    2    0    0 -0.16498819810E+02 -0.41887123402E+02 -0.84445496527E+02  0.12500000000E+03  0.80419002446E+02 0. -1.
</event>
<event>
 4    1  0.1599584E-001  0.1250000E+03  0.7546771E-02  0.1126479E+00
        -11   -1    0    0    0    0  0.00000000000E+00  0.00000000000E+00  0.12500000000E+03  0.12500000000E+03  0.00000000000E+00 0.  1.
         11   -1    0    0    0    0 -0.00000000000E+00 -0.00000000000E+00 -0.12500000000E+03  0.12500000000E+03  0.00000000000E+00 0. -1.
         24    1    1    2    0    0  0.71327596669E-02  0.66200817683E+01  0.95467054590E+02  0.12500000000E+03  0.80419002446E+02 0.  0.
        -24    1    1    2    0    0 -0.71327596669E-02 -0.66200817683E+01 -0.95467054590E+02  0.12500000000E+03  0.80419002446E+02 0. -1.
</event>
<event>
 4    1  0.1599584E-001  0.1250000E+03  0.7546771E-02  0.1126479E+00
        -11   -1    0    0    0    0  0.00000000000E+00  0.00000000000E+00  0.12500000000E+03  0.12500000000E+03  0.00000000000E+00 0.  1.
         11   -1    0    0    0    0 -0.00000000000E+00 -0.00000000000E+00 -0.12500000000E+03  0.12500000000E+03  0.00000000000E+00 0. -1.
         24    1    1    2    0    0 -0.17404204817E+02  0.44567139272E+02  0.82877305684E+02  0.12500000000E+03  0.80419002446E+02 0.  1.
        -24    1    1    2    0    0  0.17404204817E+02 -0.44567139272E+02 -0.82877305684E+02  0.12500000000E+03  0.80419002446E+02 0. -1.
</event>
<event>
 4    1  0.1599584E-001  0.1250000E+03  0.7546771E-02  0.1126479E+00
        -11   -1    0    0    0    0  0.00000000000E+00  0.00000000000E+00  0.12500000000E+03  0.12500000000E+03  0.00000000000E+00 0.  1.
         11   -1    0    0    0    0 -0.00000000000E+00 -0.00000000000E+00 -0.12500000000E+03  0.12500000000E+03  0.00000000000E+00 0. -1.
         24    1    1    2    0    0 -0.35463868520E+02 -0.82781684688E+02 -0.32361871940E+02  0.12500000000E+03  0.80419002446E+02 0.  0.
        -24    1    1    2    0    0  0.35463868520E+02  0.82781684688E+02  0.32361871940E+02  0.12500000000E+03  0.80419002446E+02 0.  0.
</event>
<event>
 4    1  0.1599584E-001  0.1250000E+03  0.7546771E-02  0.1126479E+00
        -11   -1    0    0    0    0  0.00000000000E+00  0.00000000000E+00  0.12500000000E+03  0.12500000000E+03  0.00000000000E+00 0.  1.
         11   -1    0    0    0    0 -0.00000000000E+00 -0.00000000000E+00 -0.12500000000E+03  0.12500000000E+03  0.00000000000E+00 0. -1.
         24    1    1    2    0    0 -0.80167980367E+01  0.39690214255E+02  0.86707565340E+02  0.12500000000E+03  0.80419002446E+02 0.  1.
        -24    1    1    2    0    0  0.80167980367E+01 -0.39690214255E+02 -0.86707565340E+02  0.12500000000E+03  0.80419002446E+02 0. -1.
</event>
<event>
 4    1  0.1599584E-001  0.1250000E+03  0.7546771E-02  0.1126479E+00
        -11   -1    0    0    0    0  0.00000000000E+00  0.00000000000E+00  0.12500000000E+03  0.12500000000E+03  0.00000000000E+00 0.  1.
         11   -1    0    0    0    0 -0.00000000000E+00 -0.00000000000E+00 -0.12500000000E+03  0.12500000000E+03  0.00000000000E+00 0. -1.
         24    1    1    2    0    0  0.18268812234E+02  0.21699004698E+02  0.91395775287E+02  0.12500000000E+03  0.80419002446E+02 0.  1.
        -24    1    1    2    0    0 -0.18268812234E+02 -0.21699004698E+02 -0.91395775287E+02  0.12500000000E+03  0.80419002446E+02 0. -1.
</event>
<event>
 4    1  0.1599584E-001  0.1250000E+03  0.7546771E-02  0.1126479E+00
        -11   -1    0    0    0    0  0.00000000000E+00  0.00000000000E+00  0.12500000000E+03  0.12500000000E+03  0.00000000000E+00 0.  1.
         11   -1    0    0    0    0 -0.00000000000E+00 -0.00000000000E+00 -0.12500000000E+03  0.12500000000E+03  0.00000000000E+00 0. -1.
         24    1    1    2    0    0  0.18126902572E+02  0.10580098962E+02  0.93366273112E+02  0.12500000000E+03  0.80419002446E+02 0.  1.
        -24    1    1    2    0    0 -0.18126902572E+02 -0.10580098962E+02 -0.93366273112E+02  0.12500000000E+03  0.80419002446E+02 0.  0.
</event>
<event>
 4    1  0.1599584E-001  0.1250000E+03  0.7546771E-02  0.1126479E+00
        -11   -1    0    0    0    0  0.00000000000E+00  0.00000000000E+00  0.12500000000E+03  0.12500000000E+03  0.00000000000E+00 0.  1.
         11   -1    0    0    0    0 -0.00000000000E+00 -0.00000000000E+00 -0.12500000000E+03  0.12500000000E+03  0.00000000000E+00 0. -1.
         24    1    1    2    0    0 -0.53365860376E+01 -0.55481527159E+01  0.95386177702E+02  0.12500000000E+03  0.80419002446E+02 0.  1.
        -24    1    1    2    0    0  0.53365860376E+01  0.55481527159E+01 -0.95386177702E+02  0.12500000000E+03  0.80419002446E+02 0. -1.
</event>
<event>
 4    1  0.1599584E-001  0.1250000E+03  0.7546771E-02  0.1126479E+00
        -11   -1    0    0    0    0  0.00000000000E+00  0.00000000000E+00  0.12500000000E+03  0.12500000000E+03  0.00000000000E+00 0.  1.
         11   -1    0    0    0    0 -0.00000000000E+00 -0.00000000000E+00 -0.12500000000E+03  0.12500000000E+03  0.00000000000E+00 0. -1.
         24    1    1    2    0    0 -0.80166642121E+02 -0.38998652326E+02  0.34787909588E+02  0.12500000000E+03  0.80419002446E+02 0. -1.
        -24    1    1    2    0    0  0.80166642121E+02  0.38998652326E+02 -0.34787909588E+02  0.12500000000E+03  0.80419002446E+02 0.  1.
</event>
<event>
 4    1  0.1599584E-001  0.1250000E+03  0.7546771E-02  0.1126479E+00
        -11   -1    0    0    0    0  0.00000000000E+00  0.00000000000E+00  0.12500000000E+03  0.12500000000E+03  0.00000000000E+00 0.  1.
         11   -1    0    0    0    0 -0.00000000000E+00 -0.00000000000E+00 -0.12500000000E+03  0.12500000000E+03  0.00000000000E+00 0. -1.
         24    1    1    2    0    0 -0.82211879285E+01  0.29482674364E+02  0.90669554025E+02  0.12500000000E+03  0.80419002446E+02 0.  1.
        -24    1    1    2    0    0  0.82211879285E+01 -0.29482674364E+02 -0.90669554025E+02  0.12500000000E+03  0.80419002446E+02 0. -1.
</event>
<event>
 4    1  0.1599584E-001  0.1250000E+03  0.7546771E-02  0.1126479E+00
        -11   -1    0    0    0    0  0.00000000000E+00  0.00000000000E+00  0.12500000000E+03  0.12500000000E+03  0.00000000000E+00 0.  1.
         11   -1    0    0    0    0 -0.00000000000E+00 -0.00000000000E+00 -0.12500000000E+03  0.12500000000E+03  0.00000000000E+00 0. -1.
         24    1    1    2    0    0 -0.23747806693E+02  0.34940600888E+02  0.85866059258E+02  0.12500000000E+03  0.80419002446E+02 0.  1.
        -24    1    1    2    0    0  0.23747806693E+02 -0.34940600888E+02 -0.85866059258E+02  0.12500000000E+03  0.80419002446E+02 0. -1.
</event>
<event>
 4    1  0.1599584E-001  0.1250000E+03  0.7546771E-02  0.1126479E+00
        -11   -1    0    0    0    0  0.00000000000E+00  0.00000000000E+00  0.12500000000E+03  0.12500000000E+03  0.00000000000E+00 0.  1.
         11   -1    0    0    0    0 -0.00000000000E+00 -0.00000000000E+00 -0.12500000000E+03  0.12500000000E+03  0.00000000000E+00 0. -1.
         24    1    1    2    0    0 -0.24787382344E+02 -0.84074493372E+02  0.38403766566E+02  0.12500000000E+03  0.80419002446E+02 0.  1.
        -24    1    1    2    0    0  0.24787382344E+02  0.84074493372E+02 -0.38403766566E+02  0.12500000000E+03  0.80419002446E+02 0. -1.
</event>
<event>
 4    1  0.1599584E-001  0.1250000E+03  0.7546771E-02  0.1126479E+00
        -11   -1    0    0    0    0  0.00000000000E+00  0.00000000000E+00  0.12500000000E+03  0.12500000000E+03  0.00000000000E+00 0.  1.
         11   -1    0    0    0    0 -0.00000000000E+00 -0.00000000000E+00 -0.12500000000E+03  0.12500000000E+03  0.00000000000E+00 0. -1.
         24    1    1    2    0    0 -0.11838327046E+02 -0.45399630598E+02  0.83405704841E+02  0.12500000000E+03  0.80419002446E+02 0.  1.
        -24    1    1    2    0    0  0.11838327046E+02  0.45399630598E+02 -0.83405704841E+02  0.12500000000E+03  0.80419002446E+02 0. -1.
</event>
<event>
 4    1  0.1599584E-001  0.1250000E+03  0.7546771E-02  0.1126479E+00
        -11   -1    0    0    0    0  0.00000000000E+00  0.00000000000E+00  0.12500000000E+03  0.12500000000E+03  0.00000000000E+00 0.  1.
         11   -1    0    0    0    0 -0.00000000000E+00 -0.00000000000E+00 -0.12500000000E+03  0.12500000000E+03  0.00000000000E+00 0. -1.
         24    1    1    2    0    0  0.81109905144E+02  0.47012072608E+02  0.19205008781E+02  0.12500000000E+03  0.80419002446E+02 0. -1.
        -24    1    1    2    0    0 -0.81109905144E+02 -0.47012072608E+02 -0.19205008781E+02  0.12500000000E+03  0.80419002446E+02 0.  1.
</event>
<event>
 4    1  0.1599584E-001  0.1250000E+03  0.7546771E-02  0.1126479E+00
        -11   -1    0    0    0    0  0.00000000000E+00  0.00000000000E+00  0.12500000000E+03  0.12500000000E+03  0.00000000000E+00 0.  1.
         11   -1    0    0    0    0 -0.00000000000E+00 -0.00000000000E+00 -0.12500000000E+03  0.12500000000E+03  0.00000000000E+00 0. -1.
         24    1    1    2    0    0  0.16481733334E+02  0.59741104510E+02  0.72918700920E+02  0.12500000000E+03  0.80419002446E+02 0. -1.
        -24    1    1    2    0    0 -0.16481733334E+02 -0.59741104510E+02 -0.72918700920E+02  0.12500000000E+03  0.80419002446E+02 0.  1.
</event>
<event>
 4    1  0.1599584E-001  0.1250000E+03  0.7546771E-02  0.1126479E+00
        -11   -1    0    0    0    0  0.00000000000E+00  0.00000000000E+00  0.12500000000E+03  0.12500000000E+03  0.00000000000E+00 0.  1.
         11   -1    0    0    0    0 -0.00000000000E+00 -0.00000000000E+00 -0.12500000000E+03  0.12500000000E+03  0.00000000000E+00 0. -1.
         24    1    1    2    0    0  0.84448978848E+01  0.68332048638E+02  0.66462010760E+02  0.12500000000E+03  0.80419002446E+02 0.  1.
        -24    1    1    2    0    0 -0.84448978848E+01 -0.68332048638E+02 -0.66462010760E+02  0.12500000000E+03  0.80419002446E+02 0. -1.
</event>
<event>
 4    1  0.1599584E-001  0.1250000E+03  0.7546771E-02  0.1126479E+00
        -11   -1    0    0    0    0  0.00000000000E+00  0.00000000000E+00  0.12500000000E+03  0.12500000000E+03  0.00000000000E+00 0.  1.
         11   -1    0    0    0    0 -0.00000000000E+00 -0.00000000000E+00 -0.12500000000E+03  0.12500000000E+03  0.00000000000E+00 0. -1.
         24    1    1    2    0    0  0.87370619805E+02 -0.36367307776E+02 -0.14197808478E+02  0.12500000000E+03  0.80419002446E+02 0.  1.
        -24    1    1    2    0    0 -0.87370619805E+02  0.36367307776E+02  0.14197808478E+02  0.12500000000E+03  0.80419002446E+02 0.  0.
</event>
<event>
 4    1  0.1599584E-001  0.1250000E+03  0.7546771E-02  0.1126479E+00
        -11   -1    0    0    0    0  0.00000000000E+00  0.00000000000E+00  0.12500000000E+03  0.12500000000E+03  0.00000000000E+00 0.  1.
         11   -1    0    0    0    0 -0.00000000000E+00 -0.00000000000E+00 -0.12500000000E+03  0.12500000000E+03  0.00000000000E+00 0. -1.
         24    1    1    2    0    0  0.26239940325E+02 -0.41011751674E+02  0.82384985294E+02  0.12500000000E+03  0.80419002446E+02 0.  1.
        -24    1    1    2    0    0 -0.26239940325E+02  0.41011751674E+02 -0.82384985294E+02  0.12500000000E+03  0.80419002446E+02 0. -1.
</event>
<event>
 4    1  0.1599584E-001  0.1250000E+03  0.7546771E-02  0.1126479E+00
        -11   -1    0    0    0    0  0.00000000000E+00  0.00000000000E+00  0.12500000000E+03  0.12500000000E+03  0.00000000000E+00 0.  1.
         11   -1    0    0    0    0 -0.00000000000E+00 -0.00000000000E+00 -0.12500000000E+03  0.12500000000E+03  0.00000000000E+00 0. -1.
         24    1    1    2    0    0  0.14224620334E+02 -0.54124839070E+02  0.77626967077E+02  0.12500000000E+03  0.80419002446E+02 0.  1.
        -24    1    1    2    0    0 -0.14224620334E+02  0.54124839070E+02 -0.77626967077E+02  0.12500000000E+03  0.80419002446E+02 0. -1.
</event>
<event>
 4    1  0.1599584E-001  0.1250000E+03  0.7546771E-02  0.1126479E+00
        -11   -1    0    0    0    0  0.00000000000E+00  0.00000000000E+00  0.12500000000E+03  0.12500000000E+03  0.00000000000E+00 0.  1.
         11   -1    0    0    0    0 -0.00000000000E+00 -0.00000000000E+00 -0.12500000000E+03  0.12500000000E+03  0.00000000000E+00 0. -1.
         24    1    1    2    0    0  0.31551078313E+01 -0.20450818675E+02  0.93432292896E+02  0.12500000000E+03  0.80419002446E+02 0.  1.
        -24    1    1    2    0    0 -0.31551078313E+01  0.20450818675E+02 -0.93432292896E+02  0.12500000000E+03  0.80419002446E+02 0. -1.
</event>
<event>
 4    1  0.1599584E-001  0.1250000E+03  0.7546771E-02  0.1126479E+00
        -11   -1    0    0    0    0  0.00000000000E+00  0.00000000000E+00  0.12500000000E+03  0.12500000000E+03  0.00000000000E+00 0.  1.
         11   -1    0    0    0    0 -0.00000000000E+00 -0.00000000000E+00 -0.12500000000E+03  0.12500000000E+03  0.00000000000E+00 0. -1.
         24    1    1    2    0    0 -0.62652613118E+01  0.42915291724E+02  0.85304210228E+02  0.12500000000E+03  0.80419002446E+02 0.  1.
        -24    1    1    2    0    0  0.62652613118E+01 -0.42915291724E+02 -0.85304210228E+02  0.12500000000E+03  0.80419002446E+02 0. -1.
</event>
<event>
 4    1  0.1599584E-001  0.1250000E+03  0.7546771E-02  0.1126479E+00
        -11   -1    0    0    0    0  0.00000000000E+00  0.00000000000E+00  0.12500000000E+03  0.12500000000E+03  0.00000000000E+00 0.  1.
         11   -1    0    0    0    0 -0.00000000000E+00 -0.00000000000E+00 -0.12500000000E+03  0.12500000000E+03  0.00000000000E+00 0. -1.
         24    1    1    2    0    0 -0.38848776940E+02  0.11999382744E+02  0.86628929288E+02  0.12500000000E+03  0.80419002446E+02 0. -1.
        -24    1    1    2    0    0  0.38848776940E+02 -0.11999382744E+02 -0.86628929288E+02  0.12500000000E+03  0.80419002446E+02 0.  0.
</event>
<event>
 4    1  0.1599584E-001  0.1250000E+03  0.7546771E-02  0.1126479E+00
        -11   -1    0    0    0    0  0.00000000000E+00  0.00000000000E+00  0.12500000000E+03  0.12500000000E+03  0.00000000000E+00 0.  1.
         11   -1    0    0    0    0 -0.00000000000E+00 -0.00000000000E+00 -0.12500000000E+03  0.12500000000E+03  0.00000000000E+00 0. -1.
         24    1    1    2    0    0  0.35842436671E+01  0.64996670137E+02  0.70145349911E+02  0.12500000000E+03  0.80419002446E+02 0.  1.
        -24    1    1    2    0    0 -0.35842436671E+01 -0.64996670137E+02 -0.70145349911E+02  0.12500000000E+03  0.80419002446E+02 0. -1.
</event>
<event>
 4    1  0.1599584E-001  0.1250000E+03  0.7546771E-02  0.1126479E+00
        -11   -1    0    0    0    0  0.00000000000E+00  0.00000000000E+00  0.12500000000E+03  0.12500000000E+03  0.00000000000E+00 0.  1.
         11   -1    0    0    0    0 -0.00000000000E+00 -0.00000000000E+00 -0.12500000000E+03  0.12500000000E+03  0.00000000000E+00 0. -1.
         24    1    1    2    0    0  0.76343271245E+02  0.42845719836E+02  0.38648845688E+02  0.12500000000E+03  0.80419002446E+02 0.  1.
        -24    1    1    2    0    0 -0.76343271245E+02 -0.42845719836E+02 -0.38648845688E+02  0.12500000000E+03  0.80419002446E+02 0. -1.
</event>
<event>
 4    1  0.1599584E-001  0.1250000E+03  0.7546771E-02  0.1126479E+00
        -11   -1    0    0    0    0  0.00000000000E+00  0.00000000000E+00  0.12500000000E+03  0.12500000000E+03  0.00000000000E+00 0.  1.
         11   -1    0    0    0    0 -0.00000000000E+00 -0.00000000000E+00 -0.12500000000E+03  0.12500000000E+03  0.00000000000E+00 0. -1.
         24    1    1    2    0    0 -0.41027158945E+02 -0.18855494449E+02  0.84374324315E+02  0.12500000000E+03  0.80419002446E+02 0.  1.
        -24    1    1    2    0    0  0.41027158945E+02  0.18855494449E+02 -0.84374324315E+02  0.12500000000E+03  0.80419002446E+02 0. -1.
</event>
<event>
 4    1  0.1599584E-001  0.1250000E+03  0.7546771E-02  0.1126479E+00
        -11   -1    0    0    0    0  0.00000000000E+00  0.00000000000E+00  0.12500000000E+03  0.12500000000E+03  0.00000000000E+00 0.  1.
         11   -1    0    0    0    0 -0.00000000000E+00 -0.00000000000E+00 -0.12500000000E+03  0.12500000000E+03  0.00000000000E+00 0. -1.
         24    1    1    2    0    0 -0.15094672459E+02  0.13838423556E+02  0.93479585699E+02  0.12500000000E+03  0.80419002446E+02 0.  1.
        -24    1    1    2    0    0  0.15094672459E+02 -0.13838423556E+02 -0.93479585699E+02  0.12500000000E+03  0.80419002446E+02 0. -1.
</event>
<event>
 4    1  0.1599584E-001  0.1250000E+03  0.7546771E-02  0.1126479E+00
        -11   -1    0    0    0    0  0.00000000000E+00  0.00000000000E+00  0.12500000000E+03  0.12500000000E+03  0.00000000000E+00 0.  1.
         11   -1    0    0    0    0 -0.00000000000E+00 -0.00000000000E+00 -0.12500000000E+03  0.12500000000E+03  0.00000000000E+00 0. -1.
         24    1    1    2    0    0  0.21037611508E+02 -0.72536558920E+01  0.93073021998E+02  0.12500000000E+03  0.80419002446E+02 0.  1.
        -24    1    1    2    0    0 -0.21037611508E+02  0.72536558920E+01 -0.93073021998E+02  0.12500000000E+03  0.80419002446E+02 0. -1.
</event>
<event>
 4    1  0.1599584E-001  0.1250000E+03  0.7546771E-02  0.1126479E+00
        -11   -1    0    0    0    0  0.00000000000E+00  0.00000000000E+00  0.12500000000E+03  0.12500000000E+03  0.00000000000E+00 0.  1.
         11   -1    0    0    0    0 -0.00000000000E+00 -0.00000000000E+00 -0.12500000000E+03  0.12500000000E+03  0.00000000000E+00 0. -1.
         24    1    1    2    0    0 -0.79351124813E+01  0.86420162464E+02  0.40328321999E+02  0.12500000000E+03  0.80419002446E+02 0.  0.
        -24    1    1    2    0    0  0.79351124813E+01 -0.86420162464E+02 -0.40328321999E+02  0.12500000000E+03  0.80419002446E+02 0. -1.
</event>
<event>
 4    1  0.1599584E-001  0.1250000E+03  0.7546771E-02  0.1126479E+00
        -11   -1    0    0    0    0  0.00000000000E+00  0.00000000000E+00  0.12500000000E+03  0.12500000000E+03  0.00000000000E+00 0.  1.
         11   -1    0    0    0    0 -0.00000000000E+00 -0.00000000000E+00 -0.12500000000E+03  0.12500000000E+03  0.00000000000E+00 0. -1.
         24    1    1    2    0    0 -0.45734890490E+02  0.14229265317E+02  0.82847038849E+02  0.12500000000E+03  0.80419002446E+02 0.  1.
        -24    1    1    2    0    0  0.45734890490E+02 -0.14229265317E+02 -0.82847038849E+02  0.12500000000E+03  0.80419002446E+02 0. -1.
</event>
<event>
 4    1  0.1599584E-001  0.1250000E+03  0.7546771E-02  0.1126479E+00
        -11   -1    0    0    0    0  0.00000000000E+00  0.00000000000E+00  0.12500000000E+03  0.12500000000E+03  0.00000000000E+00 0.  1.
         11   -1    0    0    0    0 -0.00000000000E+00 -0.00000000000E+00 -0.12500000000E+03  0.12500000000E+03  0.00000000000E+00 0. -1.
         24    1    1    2    0    0  0.15194914209E+02  0.63701910648E+02  0.69777970790E+02  0.12500000000E+03  0.80419002446E+02 0.  1.
        -24    1    1    2    0    0 -0.15194914209E+02 -0.63701910648E+02 -0.69777970790E+02  0.12500000000E+03  0.80419002446E+02 0. -1.
</event>
<event>
 4    1  0.1599584E-001  0.1250000E+03  0.7546771E-02  0.1126479E+00
        -11   -1    0    0    0    0  0.00000000000E+00  0.00000000000E+00  0.12500000000E+03  0.12500000000E+03  0.00000000000E+00 0.  1.
         11   -1    0    0    0    0 -0.00000000000E+00 -0.00000000000E+00 -0.12500000000E+03  0.12500000000E+03  0.00000000000E+00 0. -1.
         24    1    1    2    0    0 -0.15002166707E+02  0.23272987063E+01  0.94484404642E+02  0.12500000000E+03  0.80419002446E+02 0.  1.
        -24    1    1    2    0    0  0.15002166707E+02 -0.23272987063E+01 -0.94484404642E+02  0.12500000000E+03  0.80419002446E+02 0. -1.
</event>
<event>
 4    1  0.1599584E-001  0.1250000E+03  0.7546771E-02  0.1126479E+00
        -11   -1    0    0    0    0  0.00000000000E+00  0.00000000000E+00  0.12500000000E+03  0.12500000000E+03  0.00000000000E+00 0.  1.
         11   -1    0    0    0    0 -0.00000000000E+00 -0.00000000000E+00 -0.12500000000E+03  0.12500000000E+03  0.00000000000E+00 0. -1.
         24    1    1    2    0    0 -0.11668394379E+02  0.16589387005E+02  0.93522322774E+02  0.12500000000E+03  0.80419002446E+02 0.  1.
        -24    1    1    2    0    0  0.11668394379E+02 -0.16589387005E+02 -0.93522322774E+02  0.12500000000E+03  0.80419002446E+02 0. -1.
</event>
