<event>
 4    1  0.1590495E-001  0.1250000E+03  0.7546771E-02  0.1126479E+00
        -11   -1    0    0    0    0  0.00000000000E+00  0.00000000000E+00  0.12500000000E+03  0.12500000000E+03  0.00000000000E+00 0.  1.
         11   -1    0    0    0    0 -0.00000000000E+00 -0.00000000000E+00 -0.12500000000E+03  0.12500000000E+03  0.00000000000E+00 0. -1.
         24    1    1    2    0    0 -0.17009455261E+02  0.20090696229E+02  0.92004491208E+02  0.12500000000E+03  0.80419002446E+02 0.  1.
        -24    1    1    2    0    0  0.17009455261E+02 -0.20090696229E+02 -0.92004491208E+02  0.12500000000E+03  0.80419002446E+02 0. -1.
</event>
<event>
 4    1  0.1590495E-001  0.1250000E+03  0.7546771E-02  0.1126479E+00
        -11   -1    0    0    0    0  0.00000000000E+00  0.00000000000E+00  0.12500000000E+03  0.12500000000E+03  0.00000000000E+00 0.  1.
         11   -1    0    0    0    0 -0.00000000000E+00 -0.00000000000E+00 -0.12500000000E+03  0.12500000000E+03  0.00000000000E+00 0. -1.
         24    1    1    2    0    0  0.13632978561E+02  0.33039619231E+02  0.88771107362E+02  0.12500000000E+03  0.80419002446E+02 0.  1.
        -24    1    1    2    0    0 -0.13632978561E+02 -0.33039619231E+02 -0.88771107362E+02  0.12500000000E+03  0.80419002446E+02 0. -1.
</event>
<event>
 4    1  0.1590495E-001  0.1250000E+03  0.7546771E-02  0.1126479E+00
        -11   -1    0    0    0    0  0.00000000000E+00  0.00000000000E+00  0.12500000000E+03  0.12500000000E+03  0.00000000000E+00 0.  1.
         11   -1    0    0    0    0 -0.00000000000E+00 -0.00000000000E+00 -0.12500000000E+03  0.12500000000E+03  0.00000000000E+00 0. -1.
         24    1    1    2    0    0 -0.15964327810E+02  0.19489498872E+02 -0.92320548725E+02  0.12500000000E+03  0.80419002446E+02 0.  0.
        -24    1    1    2    0    0  0.15964327810E+02 -0.19489498872E+02  0.92320548725E+02  0.12500000000E+03  0.80419002446E+02 0.  1.
</event>
<event>
 4    1  0.1590495E-001  0.1250000E+03  0.7546771E-02  0.1126479E+00
        -11   -1    0    0    0    0  0.00000000000E+00  0.00000000000E+00  0.12500000000E+03  0.12500000000E+03  0.00000000000E+00 0.  1.
         11   -1    0    0    0    0 -0.00000000000E+00 -0.00000000000E+00 -0.12500000000E+03  0.12500000000E+03  0.00000000000E+00 0. -1.
         24    1    1    2    0    0 -0.43042256332E+02  0.17166012877E+02  0.83728586620E+02  0.12500000000E+03  0.80419002446E+02 0.  1.
        -24    1    1    2    0    0  0.43042256332E+02 -0.17166012877E+02 -0.83728586620E+02  0.12500000000E+03  0.80419002446E+02 0. -1.
</event>
<event>
 4    1  0.1590495E-001  0.1250000E+03  0.7546771E-02  0.1126479E+00
        -11   -1    0    0    0    0  0.00000000000E+00  0.00000000000E+00  0.12500000000E+03  0.12500000000E+03  0.00000000000E+00 0.  1.
         11   -1    0    0    0    0 -0.00000000000E+00 -0.00000000000E+00 -0.12500000000E+03  0.12500000000E+03  0.00000000000E+00 0. -1.
         24    1    1    2    0    0  0.93121405599E+01  0.39889341375E+02  0.86486464424E+02  0.12500000000E+03  0.80419002446E+02 0.  1.
        -24    1    1    2    0    0 -0.93121405599E+01 -0.39889341375E+02 -0.86486464424E+02  0.12500000000E+03  0.80419002446E+02 0. -1.
</event>
<event>
 4    1  0.1590495E-001  0.1250000E+03  0.7546771E-02  0.1126479E+00
        -11   -1    0    0    0    0  0.00000000000E+00  0.00000000000E+00  0.12500000000E+03  0.12500000000E+03  0.00000000000E+00 0.  1.
         11   -1    0    0    0    0 -0.00000000000E+00 -0.00000000000E+00 -0.12500000000E+03  0.12500000000E+03  0.00000000000E+00 0. -1.
         24    1    1    2    0    0  0.96623205841E+01  0.97318033644E+01  0.94708582556E+02  0.12500000000E+03  0.80419002446E+02 0.  1.
        -24    1    1    2    0    0 -0.96623205841E+01 -0.97318033644E+01 -0.94708582556E+02  0.12500000000E+03  0.80419002446E+02 0. -1.
</event>
<event>
 4    1  0.1590495E-001  0.1250000E+03  0.7546771E-02  0.1126479E+00
        -11   -1    0    0    0    0  0.00000000000E+00  0.00000000000E+00  0.12500000000E+03  0.12500000000E+03  0.00000000000E+00 0.  1.
         11   -1    0    0    0    0 -0.00000000000E+00 -0.00000000000E+00 -0.12500000000E+03  0.12500000000E+03  0.00000000000E+00 0. -1.
         24    1    1    2    0    0 -0.40401429995E+02  0.69265570267E+01  0.86472720020E+02  0.12500000000E+03  0.80419002446E+02 0.  1.
        -24    1    1    2    0    0  0.40401429995E+02 -0.69265570267E+01 -0.86472720020E+02  0.12500000000E+03  0.80419002446E+02 0. -1.
</event>
<event>
 4    1  0.1590495E-001  0.1250000E+03  0.7546771E-02  0.1126479E+00
        -11   -1    0    0    0    0  0.00000000000E+00  0.00000000000E+00  0.12500000000E+03  0.12500000000E+03  0.00000000000E+00 0.  1.
         11   -1    0    0    0    0 -0.00000000000E+00 -0.00000000000E+00 -0.12500000000E+03  0.12500000000E+03  0.00000000000E+00 0. -1.
         24    1    1    2    0    0  0.50691024401E+02 -0.76675008228E+02 -0.26629817949E+02  0.12500000000E+03  0.80419002446E+02 0.  0.
        -24    1    1    2    0    0 -0.50691024401E+02  0.76675008228E+02  0.26629817949E+02  0.12500000000E+03  0.80419002446E+02 0.  0.
</event>
<event>
 4    1  0.1590495E-001  0.1250000E+03  0.7546771E-02  0.1126479E+00
        -11   -1    0    0    0    0  0.00000000000E+00  0.00000000000E+00  0.12500000000E+03  0.12500000000E+03  0.00000000000E+00 0.  1.
         11   -1    0    0    0    0 -0.00000000000E+00 -0.00000000000E+00 -0.12500000000E+03  0.12500000000E+03  0.00000000000E+00 0. -1.
         24    1    1    2    0    0  0.12504840650E+02  0.48438776829E+02  0.81578783426E+02  0.12500000000E+03  0.80419002446E+02 0.  1.
        -24    1    1    2    0    0 -0.12504840650E+02 -0.48438776829E+02 -0.81578783426E+02  0.12500000000E+03  0.80419002446E+02 0. -1.
</event>
<event>
 4    1  0.1590495E-001  0.1250000E+03  0.7546771E-02  0.1126479E+00
        -11   -1    0    0    0    0  0.00000000000E+00  0.00000000000E+00  0.12500000000E+03  0.12500000000E+03  0.00000000000E+00 0.  1.
         11   -1    0    0    0    0 -0.00000000000E+00 -0.00000000000E+00 -0.12500000000E+03  0.12500000000E+03  0.00000000000E+00 0. -1.
         24    1    1    2    0    0 -0.62916948143E+02  0.69411885853E+02  0.19525157726E+02  0.12500000000E+03  0.80419002446E+02 0.  1.
        -24    1    1    2    0    0  0.62916948143E+02 -0.69411885853E+02 -0.19525157726E+02  0.12500000000E+03  0.80419002446E+02 0. -1.
</event>
<event>
 4    1  0.1590495E-001  0.1250000E+03  0.7546771E-02  0.1126479E+00
        -11   -1    0    0    0    0  0.00000000000E+00  0.00000000000E+00  0.12500000000E+03  0.12500000000E+03  0.00000000000E+00 0.  1.
         11   -1    0    0    0    0 -0.00000000000E+00 -0.00000000000E+00 -0.12500000000E+03  0.12500000000E+03  0.00000000000E+00 0. -1.
         24    1    1    2    0    0 -0.79096376627E+02  0.50231126953E+02 -0.19452021365E+02  0.12500000000E+03  0.80419002446E+02 0.  0.
        -24    1    1    2    0    0  0.79096376627E+02 -0.50231126953E+02  0.19452021365E+02  0.12500000000E+03  0.80419002446E+02 0. -1.
</event>
<event>
 4    1  0.1590495E-001  0.1250000E+03  0.7546771E-02  0.1126479E+00
        -11   -1    0    0    0    0  0.00000000000E+00  0.00000000000E+00  0.12500000000E+03  0.12500000000E+03  0.00000000000E+00 0.  1.
         11   -1    0    0    0    0 -0.00000000000E+00 -0.00000000000E+00 -0.12500000000E+03  0.12500000000E+03  0.00000000000E+00 0. -1.
         24    1    1    2    0    0  0.21120580725E+02  0.13752632668E+02  0.92317767576E+02  0.12500000000E+03  0.80419002446E+02 0.  0.
        -24    1    1    2    0    0 -0.21120580725E+02 -0.13752632668E+02 -0.92317767576E+02  0.12500000000E+03  0.80419002446E+02 0. -1.
</event>
<event>
 4    1  0.1590495E-001  0.1250000E+03  0.7546771E-02  0.1126479E+00
        -11   -1    0    0    0    0  0.00000000000E+00  0.00000000000E+00  0.12500000000E+03  0.12500000000E+03  0.00000000000E+00 0.  1.
         11   -1    0    0    0    0 -0.00000000000E+00 -0.00000000000E+00 -0.12500000000E+03  0.12500000000E+03  0.00000000000E+00 0. -1.
         24    1    1    2    0    0 -0.58665159972E+02  0.10705005343E+01  0.75597864254E+02  0.12500000000E+03  0.80419002446E+02 0.  1.
        -24    1    1    2    0    0  0.58665159972E+02 -0.10705005343E+01 -0.75597864254E+02  0.12500000000E+03  0.80419002446E+02 0. -1.
</event>
<event>
 4    1  0.1590495E-001  0.1250000E+03  0.7546771E-02  0.1126479E+00
        -11   -1    0    0    0    0  0.00000000000E+00  0.00000000000E+00  0.12500000000E+03  0.12500000000E+03  0.00000000000E+00 0.  1.
         11   -1    0    0    0    0 -0.00000000000E+00 -0.00000000000E+00 -0.12500000000E+03  0.12500000000E+03  0.00000000000E+00 0. -1.
         24    1    1    2    0    0 -0.87594438429E+02  0.20440056858E+02  0.32668065103E+02  0.12500000000E+03  0.80419002446E+02 0.  1.
        -24    1    1    2    0    0  0.87594438429E+02 -0.20440056858E+02 -0.32668065103E+02  0.12500000000E+03  0.80419002446E+02 0. -1.
</event>
<event>
 4    1  0.1590495E-001  0.1250000E+03  0.7546771E-02  0.1126479E+00
        -11   -1    0    0    0    0  0.00000000000E+00  0.00000000000E+00  0.12500000000E+03  0.12500000000E+03  0.00000000000E+00 0.  1.
         11   -1    0    0    0    0 -0.00000000000E+00 -0.00000000000E+00 -0.12500000000E+03  0.12500000000E+03  0.00000000000E+00 0. -1.
         24    1    1    2    0    0 -0.11349663730E+02 -0.28995530492E+02  0.90488830197E+02  0.12500000000E+03  0.80419002446E+02 0.  1.
        -24    1    1    2    0    0  0.11349663730E+02  0.28995530492E+02 -0.90488830197E+02  0.12500000000E+03  0.80419002446E+02 0. -1.
</event>
<event>
 4    1  0.1590495E-001  0.1250000E+03  0.7546771E-02  0.1126479E+00
        -11   -1    0    0    0    0  0.00000000000E+00  0.00000000000E+00  0.12500000000E+03  0.12500000000E+03  0.00000000000E+00 0.  1.
         11   -1    0    0    0    0 -0.00000000000E+00 -0.00000000000E+00 -0.12500000000E+03  0.12500000000E+03  0.00000000000E+00 0. -1.
         24    1    1    2    0    0  0.20705285678E+02  0.26892074040E+02  0.89475647773E+02  0.12500000000E+03  0.80419002446E+02 0.  1.
        -24    1    1    2    0    0 -0.20705285678E+02 -0.26892074040E+02 -0.89475647773E+02  0.12500000000E+03  0.80419002446E+02 0. -1.
</event>
<event>
 4    1  0.1590495E-001  0.1250000E+03  0.7546771E-02  0.1126479E+00
        -11   -1    0    0    0    0  0.00000000000E+00  0.00000000000E+00  0.12500000000E+03  0.12500000000E+03  0.00000000000E+00 0.  1.
         11   -1    0    0    0    0 -0.00000000000E+00 -0.00000000000E+00 -0.12500000000E+03  0.12500000000E+03  0.00000000000E+00 0. -1.
         24    1    1    2    0    0  0.50448877105E+02  0.20468592767E+02  0.78700264006E+02  0.12500000000E+03  0.80419002446E+02 0. -1.
        -24    1    1    2    0    0 -0.50448877105E+02 -0.20468592767E+02 -0.78700264006E+02  0.12500000000E+03  0.80419002446E+02 0.  1.
</event>
<event>
 4    1  0.1590495E-001  0.1250000E+03  0.7546771E-02  0.1126479E+00
        -11   -1    0    0    0    0  0.00000000000E+00  0.00000000000E+00  0.12500000000E+03  0.12500000000E+03  0.00000000000E+00 0.  1.
         11   -1    0    0    0    0 -0.00000000000E+00 -0.00000000000E+00 -0.12500000000E+03  0.12500000000E+03  0.00000000000E+00 0. -1.
         24    1    1    2    0    0  0.35458520874E+02  0.60825642744E+02  0.64812950309E+02  0.12500000000E+03  0.80419002446E+02 0.  1.
        -24    1    1    2    0    0 -0.35458520874E+02 -0.60825642744E+02 -0.64812950309E+02  0.12500000000E+03  0.80419002446E+02 0. -1.
</event>
<event>
 4    1  0.1590495E-001  0.1250000E+03  0.7546771E-02  0.1126479E+00
        -11   -1    0    0    0    0  0.00000000000E+00  0.00000000000E+00  0.12500000000E+03  0.12500000000E+03  0.00000000000E+00 0.  1.
         11   -1    0    0    0    0 -0.00000000000E+00 -0.00000000000E+00 -0.12500000000E+03  0.12500000000E+03  0.00000000000E+00 0. -1.
         24    1    1    2    0    0 -0.26590960821E+01 -0.74978552222E+02  0.59404797452E+02  0.12500000000E+03  0.80419002446E+02 0.  1.
        -24    1    1    2    0    0  0.26590960821E+01  0.74978552222E+02 -0.59404797452E+02  0.12500000000E+03  0.80419002446E+02 0. -1.
</event>
<event>
 4    1  0.1590495E-001  0.1250000E+03  0.7546771E-02  0.1126479E+00
        -11   -1    0    0    0    0  0.00000000000E+00  0.00000000000E+00  0.12500000000E+03  0.12500000000E+03  0.00000000000E+00 0.  1.
         11   -1    0    0    0    0 -0.00000000000E+00 -0.00000000000E+00 -0.12500000000E+03  0.12500000000E+03  0.00000000000E+00 0. -1.
         24    1    1    2    0    0  0.25529262317E+02  0.21818789450E+02  0.89610162583E+02  0.12500000000E+03  0.80419002446E+02 0.  1.
        -24    1    1    2    0    0 -0.25529262317E+02 -0.21818789450E+02 -0.89610162583E+02  0.12500000000E+03  0.80419002446E+02 0.  0.
</event>
<event>
 4    1  0.1590495E-001  0.1250000E+03  0.7546771E-02  0.1126479E+00
        -11   -1    0    0    0    0  0.00000000000E+00  0.00000000000E+00  0.12500000000E+03  0.12500000000E+03  0.00000000000E+00 0.  1.
         11   -1    0    0    0    0 -0.00000000000E+00 -0.00000000000E+00 -0.12500000000E+03  0.12500000000E+03  0.00000000000E+00 0. -1.
         24    1    1    2    0    0 -0.77473532479E+01 -0.14628806773E+02  0.94253703247E+02  0.12500000000E+03  0.80419002446E+02 0.  1.
        -24    1    1    2    0    0  0.77473532479E+01  0.14628806773E+02 -0.94253703247E+02  0.12500000000E+03  0.80419002446E+02 0. -1.
</event>
<event>
 4    1  0.1590495E-001  0.1250000E+03  0.7546771E-02  0.1126479E+00
        -11   -1    0    0    0    0  0.00000000000E+00  0.00000000000E+00  0.12500000000E+03  0.12500000000E+03  0.00000000000E+00 0.  1.
         11   -1    0    0    0    0 -0.00000000000E+00 -0.00000000000E+00 -0.12500000000E+03  0.12500000000E+03  0.00000000000E+00 0. -1.
         24    1    1    2    0    0 -0.13963004445E+02  0.27145604058E+02  0.90696938939E+02  0.12500000000E+03  0.80419002446E+02 0.  1.
        -24    1    1    2    0    0  0.13963004445E+02 -0.27145604058E+02 -0.90696938939E+02  0.12500000000E+03  0.80419002446E+02 0. -1.
</event>
<event>
 4    1  0.1590495E-001  0.1250000E+03  0.7546771E-02  0.1126479E+00
        -11   -1    0    0    0    0  0.00000000000E+00  0.00000000000E+00  0.12500000000E+03  0.12500000000E+03  0.00000000000E+00 0.  1.
         11   -1    0    0    0    0 -0.00000000000E+00 -0.00000000000E+00 -0.12500000000E+03  0.12500000000E+03  0.00000000000E+00 0. -1.
         24    1    1    2    0    0  0.92084226924E+01  0.23045267386E+02  0.92422425029E+02  0.12500000000E+03  0.80419002446E+02 0.  1.
        -24    1    1    2    0    0 -0.92084226924E+01 -0.23045267386E+02 -0.92422425029E+02  0.12500000000E+03  0.80419002446E+02 0.  0.
</event>
<event>
 4    1  0.1590495E-001  0.1250000E+03  0.7546771E-02  0.1126479E+00
        -11   -1    0    0    0    0  0.00000000000E+00  0.00000000000E+00  0.12500000000E+03  0.12500000000E+03  0.00000000000E+00 0.  1.
         11   -1    0    0    0    0 -0.00000000000E+00 -0.00000000000E+00 -0.12500000000E+03  0.12500000000E+03  0.00000000000E+00 0. -1.
         24    1    1    2    0    0 -0.11267628316E+02  0.59734690740E+02  0.73909345282E+02  0.12500000000E+03  0.80419002446E+02 0.  1.
        -24    1    1    2    0    0  0.11267628316E+02 -0.59734690740E+02 -0.73909345282E+02  0.12500000000E+03  0.80419002446E+02 0. -1.
</event>
<event>
 4    1  0.1590495E-001  0.1250000E+03  0.7546771E-02  0.1126479E+00
        -11   -1    0    0    0    0  0.00000000000E+00  0.00000000000E+00  0.12500000000E+03  0.12500000000E+03  0.00000000000E+00 0.  1.
         11   -1    0    0    0    0 -0.00000000000E+00 -0.00000000000E+00 -0.12500000000E+03  0.12500000000E+03  0.00000000000E+00 0. -1.
         24    1    1    2    0    0  0.59597815552E+02  0.12638169727E+02  0.73798110362E+02  0.12500000000E+03  0.80419002446E+02 0.  1.
        -24    1    1    2    0    0 -0.59597815552E+02 -0.12638169727E+02 -0.73798110362E+02  0.12500000000E+03  0.80419002446E+02 0. -1.
</event>
<event>
 4    1  0.1590495E-001  0.1250000E+03  0.7546771E-02  0.1126479E+00
        -11   -1    0    0    0    0  0.00000000000E+00  0.00000000000E+00  0.12500000000E+03  0.12500000000E+03  0.00000000000E+00 0.  1.
         11   -1    0    0    0    0 -0.00000000000E+00 -0.00000000000E+00 -0.12500000000E+03  0.12500000000E+03  0.00000000000E+00 0. -1.
         24    1    1    2    0    0  0.58986188223E+02  0.24189977407E+02  0.71367069700E+02  0.12500000000E+03  0.80419002446E+02 0.  1.
        -24    1    1    2    0    0 -0.58986188223E+02 -0.24189977407E+02 -0.71367069700E+02  0.12500000000E+03  0.80419002446E+02 0. -1.
</event>
<event>
 4    1  0.1590495E-001  0.1250000E+03  0.7546771E-02  0.1126479E+00
        -11   -1    0    0    0    0  0.00000000000E+00  0.00000000000E+00  0.12500000000E+03  0.12500000000E+03  0.00000000000E+00 0.  1.
         11   -1    0    0    0    0 -0.00000000000E+00 -0.00000000000E+00 -0.12500000000E+03  0.12500000000E+03  0.00000000000E+00 0. -1.
         24    1    1    2    0    0  0.78311435407E+02 -0.38240687378E+01  0.54867837832E+02  0.12500000000E+03  0.80419002446E+02 0.  1.
        -24    1    1    2    0    0 -0.78311435407E+02  0.38240687378E+01 -0.54867837832E+02  0.12500000000E+03  0.80419002446E+02 0. -1.
</event>
<event>
 4    1  0.1590495E-001  0.1250000E+03  0.7546771E-02  0.1126479E+00
        -11   -1    0    0    0    0  0.00000000000E+00  0.00000000000E+00  0.12500000000E+03  0.12500000000E+03  0.00000000000E+00 0.  1.
         11   -1    0    0    0    0 -0.00000000000E+00 -0.00000000000E+00 -0.12500000000E+03  0.12500000000E+03  0.00000000000E+00 0. -1.
         24    1    1    2    0    0 -0.40921995312E+02  0.86491426014E+02  0.15516350366E+01  0.12500000000E+03  0.80419002446E+02 0.  1.
        -24    1    1    2    0    0  0.40921995312E+02 -0.86491426014E+02 -0.15516350366E+01  0.12500000000E+03  0.80419002446E+02 0. -1.
</event>
<event>
 4    1  0.1590495E-001  0.1250000E+03  0.7546771E-02  0.1126479E+00
        -11   -1    0    0    0    0  0.00000000000E+00  0.00000000000E+00  0.12500000000E+03  0.12500000000E+03  0.00000000000E+00 0.  1.
         11   -1    0    0    0    0 -0.00000000000E+00 -0.00000000000E+00 -0.12500000000E+03  0.12500000000E+03  0.00000000000E+00 0. -1.
         24    1    1    2    0    0 -0.74041066281E+02 -0.58648702954E+02  0.15363404294E+02  0.12500000000E+03  0.80419002446E+02 0.  1.
        -24    1    1    2    0    0  0.74041066281E+02  0.58648702954E+02 -0.15363404294E+02  0.12500000000E+03  0.80419002446E+02 0. -1.
</event>
<event>
 4    1  0.1590495E-001  0.1250000E+03  0.7546771E-02  0.1126479E+00
        -11   -1    0    0    0    0  0.00000000000E+00  0.00000000000E+00  0.12500000000E+03  0.12500000000E+03  0.00000000000E+00 0.  1.
         11   -1    0    0    0    0 -0.00000000000E+00 -0.00000000000E+00 -0.12500000000E+03  0.12500000000E+03  0.00000000000E+00 0. -1.
         24    1    1    2    0    0 -0.58253624488E+01  0.14186698324E+01  0.95508306308E+02  0.12500000000E+03  0.80419002446E+02 0.  1.
        -24    1    1    2    0    0  0.58253624488E+01 -0.14186698324E+01 -0.95508306308E+02  0.12500000000E+03  0.80419002446E+02 0.  0.
</event>
<event>
 4    1  0.1590495E-001  0.1250000E+03  0.7546771E-02  0.1126479E+00
        -11   -1    0    0    0    0  0.00000000000E+00  0.00000000000E+00  0.12500000000E+03  0.12500000000E+03  0.00000000000E+00 0.  1.
         11   -1    0    0    0    0 -0.00000000000E+00 -0.00000000000E+00 -0.12500000000E+03  0.12500000000E+03  0.00000000000E+00 0. -1.
         24    1    1    2    0    0 -0.13864103291E+02 -0.67186920778E+02  0.66719475132E+02  0.12500000000E+03  0.80419002446E+02 0.  1.
        -24    1    1    2    0    0  0.13864103291E+02  0.67186920778E+02 -0.66719475132E+02  0.12500000000E+03  0.80419002446E+02 0. -1.
</event>
<event>
 4    1  0.1590495E-001  0.1250000E+03  0.7546771E-02  0.1126479E+00
        -11   -1    0    0    0    0  0.00000000000E+00  0.00000000000E+00  0.12500000000E+03  0.12500000000E+03  0.00000000000E+00 0.  1.
         11   -1    0    0    0    0 -0.00000000000E+00 -0.00000000000E+00 -0.12500000000E+03  0.12500000000E+03  0.00000000000E+00 0. -1.
         24    1    1    2    0    0 -0.37196391962E+02  0.11107295711E+02  0.87469082839E+02  0.12500000000E+03  0.80419002446E+02 0.  1.
        -24    1    1    2    0    0  0.37196391962E+02 -0.11107295711E+02 -0.87469082839E+02  0.12500000000E+03  0.80419002446E+02 0. -1.
</event>
<event>
 4    1  0.1590495E-001  0.1250000E+03  0.7546771E-02  0.1126479E+00
        -11   -1    0    0    0    0  0.00000000000E+00  0.00000000000E+00  0.12500000000E+03  0.12500000000E+03  0.00000000000E+00 0.  1.
         11   -1    0    0    0    0 -0.00000000000E+00 -0.00000000000E+00 -0.12500000000E+03  0.12500000000E+03  0.00000000000E+00 0. -1.
         24    1    1    2    0    0 -0.63835841956E+01 -0.46341631776E+01  0.95370637148E+02  0.12500000000E+03  0.80419002446E+02 0.  0.
        -24    1    1    2    0    0  0.63835841956E+01  0.46341631776E+01 -0.95370637148E+02  0.12500000000E+03  0.80419002446E+02 0.  0.
</event>
<event>
 4    1  0.1590495E-001  0.1250000E+03  0.7546771E-02  0.1126479E+00
        -11   -1    0    0    0    0  0.00000000000E+00  0.00000000000E+00  0.12500000000E+03  0.12500000000E+03  0.00000000000E+00 0.  1.
         11   -1    0    0    0    0 -0.00000000000E+00 -0.00000000000E+00 -0.12500000000E+03  0.12500000000E+03  0.00000000000E+00 0. -1.
         24    1    1    2    0    0 -0.28351727667E+01 -0.17023364874E+02  0.94127312133E+02  0.12500000000E+03  0.80419002446E+02 0.  0.
        -24    1    1    2    0    0  0.28351727667E+01  0.17023364874E+02 -0.94127312133E+02  0.12500000000E+03  0.80419002446E+02 0. -1.
</event>
<event>
 4    1  0.1590495E-001  0.1250000E+03  0.7546771E-02  0.1126479E+00
        -11   -1    0    0    0    0  0.00000000000E+00  0.00000000000E+00  0.12500000000E+03  0.12500000000E+03  0.00000000000E+00 0.  1.
         11   -1    0    0    0    0 -0.00000000000E+00 -0.00000000000E+00 -0.12500000000E+03  0.12500000000E+03  0.00000000000E+00 0. -1.
         24    1    1    2    0    0  0.36357388408E+01  0.88842671676E+01  0.95213629516E+02  0.12500000000E+03  0.80419002446E+02 0.  0.
        -24    1    1    2    0    0 -0.36357388408E+01 -0.88842671676E+01 -0.95213629516E+02  0.12500000000E+03  0.80419002446E+02 0. -1.
</event>
<event>
 4    1  0.1590495E-001  0.1250000E+03  0.7546771E-02  0.1126479E+00
        -11   -1    0    0    0    0  0.00000000000E+00  0.00000000000E+00  0.12500000000E+03  0.12500000000E+03  0.00000000000E+00 0.  1.
         11   -1    0    0    0    0 -0.00000000000E+00 -0.00000000000E+00 -0.12500000000E+03  0.12500000000E+03  0.00000000000E+00 0. -1.
         24    1    1    2    0    0  0.27291093257E+02  0.19856913375E+01  0.91700803183E+02  0.12500000000E+03  0.80419002446E+02 0.  1.
        -24    1    1    2    0    0 -0.27291093257E+02 -0.19856913375E+01 -0.91700803183E+02  0.12500000000E+03  0.80419002446E+02 0. -1.
</event>
<event>
 4    1  0.1590495E-001  0.1250000E+03  0.7546771E-02  0.1126479E+00
        -11   -1    0    0    0    0  0.00000000000E+00  0.00000000000E+00  0.12500000000E+03  0.12500000000E+03  0.00000000000E+00 0.  1.
         11   -1    0    0    0    0 -0.00000000000E+00 -0.00000000000E+00 -0.12500000000E+03  0.12500000000E+03  0.00000000000E+00 0. -1.
         24    1    1    2    0    0 -0.40033660854E+02 -0.36543549735E+02  0.78864814823E+02  0.12500000000E+03  0.80419002446E+02 0.  1.
        -24    1    1    2    0    0  0.40033660854E+02  0.36543549735E+02 -0.78864814823E+02  0.12500000000E+03  0.80419002446E+02 0. -1.
</event>
<event>
 4    1  0.1590495E-001  0.1250000E+03  0.7546771E-02  0.1126479E+00
        -11   -1    0    0    0    0  0.00000000000E+00  0.00000000000E+00  0.12500000000E+03  0.12500000000E+03  0.00000000000E+00 0.  1.
         11   -1    0    0    0    0 -0.00000000000E+00 -0.00000000000E+00 -0.12500000000E+03  0.12500000000E+03  0.00000000000E+00 0. -1.
         24    1    1    2    0    0 -0.98628085384E+01  0.27587840684E+02  0.91101153120E+02  0.12500000000E+03  0.80419002446E+02 0.  1.
        -24    1    1    2    0    0  0.98628085384E+01 -0.27587840684E+02 -0.91101153120E+02  0.12500000000E+03  0.80419002446E+02 0. -1.
</event>
<event>
 4    1  0.1590495E-001  0.1250000E+03  0.7546771E-02  0.1126479E+00
        -11   -1    0    0    0    0  0.00000000000E+00  0.00000000000E+00  0.12500000000E+03  0.12500000000E+03  0.00000000000E+00 0.  1.
         11   -1    0    0    0    0 -0.00000000000E+00 -0.00000000000E+00 -0.12500000000E+03  0.12500000000E+03  0.00000000000E+00 0. -1.
         24    1    1    2    0    0  0.61742438523E+01 -0.15798792217E+02  0.94181000860E+02  0.12500000000E+03  0.80419002446E+02 0.  1.
        -24    1    1    2    0    0 -0.61742438523E+01  0.15798792217E+02 -0.94181000860E+02  0.12500000000E+03  0.80419002446E+02 0. -1.
</event>
<event>
 4    1  0.1590495E-001  0.1250000E+03  0.7546771E-02  0.1126479E+00
        -11   -1    0    0    0    0  0.00000000000E+00  0.00000000000E+00  0.12500000000E+03  0.12500000000E+03  0.00000000000E+00 0.  1.
         11   -1    0    0    0    0 -0.00000000000E+00 -0.00000000000E+00 -0.12500000000E+03  0.12500000000E+03  0.00000000000E+00 0. -1.
         24    1    1    2    0    0  0.65105356640E+01 -0.69165469474E+02  0.65814396627E+02  0.12500000000E+03  0.80419002446E+02 0.  1.
        -24    1    1    2    0    0 -0.65105356640E+01  0.69165469474E+02 -0.65814396627E+02  0.12500000000E+03  0.80419002446E+02 0. -1.
</event>
<event>
 4    1  0.1590495E-001  0.1250000E+03  0.7546771E-02  0.1126479E+00
        -11   -1    0    0    0    0  0.00000000000E+00  0.00000000000E+00  0.12500000000E+03  0.12500000000E+03  0.00000000000E+00 0.  1.
         11   -1    0    0    0    0 -0.00000000000E+00 -0.00000000000E+00 -0.12500000000E+03  0.12500000000E+03  0.00000000000E+00 0. -1.
         24    1    1    2    0    0 -0.99423652472E+01 -0.92901378774E+01  0.94723950283E+02  0.12500000000E+03  0.80419002446E+02 0.  1.
        -24    1    1    2    0    0  0.99423652472E+01  0.92901378774E+01 -0.94723950283E+02  0.12500000000E+03  0.80419002446E+02 0. -1.
</event>
<event>
 4    1  0.1590495E-001  0.1250000E+03  0.7546771E-02  0.1126479E+00
        -11   -1    0    0    0    0  0.00000000000E+00  0.00000000000E+00  0.12500000000E+03  0.12500000000E+03  0.00000000000E+00 0.  1.
         11   -1    0    0    0    0 -0.00000000000E+00 -0.00000000000E+00 -0.12500000000E+03  0.12500000000E+03  0.00000000000E+00 0. -1.
         24    1    1    2    0    0 -0.37258128672E+02  0.58473699295E+01  0.87951260130E+02  0.12500000000E+03  0.80419002446E+02 0.  1.
        -24    1    1    2    0    0  0.37258128672E+02 -0.58473699295E+01 -0.87951260130E+02  0.12500000000E+03  0.80419002446E+02 0. -1.
</event>
<event>
 4    1  0.1590495E-001  0.1250000E+03  0.7546771E-02  0.1126479E+00
        -11   -1    0    0    0    0  0.00000000000E+00  0.00000000000E+00  0.12500000000E+03  0.12500000000E+03  0.00000000000E+00 0.  1.
         11   -1    0    0    0    0 -0.00000000000E+00 -0.00000000000E+00 -0.12500000000E+03  0.12500000000E+03  0.00000000000E+00 0. -1.
         24    1    1    2    0    0  0.52148158690E+02  0.42139766151E+01 -0.80128621553E+02  0.12500000000E+03  0.80419002446E+02 0.  0.
        -24    1    1    2    0    0 -0.52148158690E+02 -0.42139766151E+01  0.80128621553E+02  0.12500000000E+03  0.80419002446E+02 0.  1.
</event>
<event>
 4    1  0.1590495E-001  0.1250000E+03  0.7546771E-02  0.1126479E+00
        -11   -1    0    0    0    0  0.00000000000E+00  0.00000000000E+00  0.12500000000E+03  0.12500000000E+03  0.00000000000E+00 0.  1.
         11   -1    0    0    0    0 -0.00000000000E+00 -0.00000000000E+00 -0.12500000000E+03  0.12500000000E+03  0.00000000000E+00 0. -1.
         24    1    1    2    0    0 -0.24686517106E+02 -0.85970784617E+02  0.34020348486E+02  0.12500000000E+03  0.80419002446E+02 0. -1.
        -24    1    1    2    0    0  0.24686517106E+02  0.85970784617E+02 -0.34020348486E+02  0.12500000000E+03  0.80419002446E+02 0.  0.
</event>
<event>
 4    1  0.1590495E-001  0.1250000E+03  0.7546771E-02  0.1126479E+00
        -11   -1    0    0    0    0  0.00000000000E+00  0.00000000000E+00  0.12500000000E+03  0.12500000000E+03  0.00000000000E+00 0.  1.
         11   -1    0    0    0    0 -0.00000000000E+00 -0.00000000000E+00 -0.12500000000E+03  0.12500000000E+03  0.00000000000E+00 0. -1.
         24    1    1    2    0    0 -0.10413360517E+02  0.63040585249E+02  0.71240652578E+02  0.12500000000E+03  0.80419002446E+02 0.  1.
        -24    1    1    2    0    0  0.10413360517E+02 -0.63040585249E+02 -0.71240652578E+02  0.12500000000E+03  0.80419002446E+02 0. -1.
</event>
<event>
 4    1  0.1590495E-001  0.1250000E+03  0.7546771E-02  0.1126479E+00
        -11   -1    0    0    0    0  0.00000000000E+00  0.00000000000E+00  0.12500000000E+03  0.12500000000E+03  0.00000000000E+00 0.  1.
         11   -1    0    0    0    0 -0.00000000000E+00 -0.00000000000E+00 -0.12500000000E+03  0.12500000000E+03  0.00000000000E+00 0. -1.
         24    1    1    2    0    0 -0.11532359249E+02  0.91062013739E+02  0.27064707453E+02  0.12500000000E+03  0.80419002446E+02 0.  1.
        -24    1    1    2    0    0  0.11532359249E+02 -0.91062013739E+02 -0.27064707453E+02  0.12500000000E+03  0.80419002446E+02 0. -1.
</event>
<event>
 4    1  0.1590495E-001  0.1250000E+03  0.7546771E-02  0.1126479E+00
        -11   -1    0    0    0    0  0.00000000000E+00  0.00000000000E+00  0.12500000000E+03  0.12500000000E+03  0.00000000000E+00 0.  1.
         11   -1    0    0    0    0 -0.00000000000E+00 -0.00000000000E+00 -0.12500000000E+03  0.12500000000E+03  0.00000000000E+00 0. -1.
         24    1    1    2    0    0  0.48642994604E+01  0.19521678931E+01  0.95552664416E+02  0.12500000000E+03  0.80419002446E+02 0.  0.
        -24    1    1    2    0    0 -0.48642994604E+01 -0.19521678931E+01 -0.95552664416E+02  0.12500000000E+03  0.80419002446E+02 0. -1.
</event>
<event>
 4    1  0.1590495E-001  0.1250000E+03  0.7546771E-02  0.1126479E+00
        -11   -1    0    0    0    0  0.00000000000E+00  0.00000000000E+00  0.12500000000E+03  0.12500000000E+03  0.00000000000E+00 0.  1.
         11   -1    0    0    0    0 -0.00000000000E+00 -0.00000000000E+00 -0.12500000000E+03  0.12500000000E+03  0.00000000000E+00 0. -1.
         24    1    1    2    0    0 -0.93124713569E+02 -0.76862106910E+01  0.20651729552E+02  0.12500000000E+03  0.80419002446E+02 0.  1.
        -24    1    1    2    0    0  0.93124713569E+02  0.76862106910E+01 -0.20651729552E+02  0.12500000000E+03  0.80419002446E+02 0. -1.
</event>
<event>
 4    1  0.1590495E-001  0.1250000E+03  0.7546771E-02  0.1126479E+00
        -11   -1    0    0    0    0  0.00000000000E+00  0.00000000000E+00  0.12500000000E+03  0.12500000000E+03  0.00000000000E+00 0.  1.
         11   -1    0    0    0    0 -0.00000000000E+00 -0.00000000000E+00 -0.12500000000E+03  0.12500000000E+03  0.00000000000E+00 0. -1.
         24    1    1    2    0    0 -0.40872961995E+02 -0.81092962433E+02  0.30184705850E+02  0.12500000000E+03  0.80419002446E+02 0.  0.
        -24    1    1    2    0    0  0.40872961995E+02  0.81092962433E+02 -0.30184705850E+02  0.12500000000E+03  0.80419002446E+02 0. -1.
</event>
<event>
 4    1  0.1590495E-001  0.1250000E+03  0.7546771E-02  0.1126479E+00
        -11   -1    0    0    0    0  0.00000000000E+00  0.00000000000E+00  0.12500000000E+03  0.12500000000E+03  0.00000000000E+00 0.  1.
         11   -1    0    0    0    0 -0.00000000000E+00 -0.00000000000E+00 -0.12500000000E+03  0.12500000000E+03  0.00000000000E+00 0. -1.
         24    1    1    2    0    0  0.56477251126E+02  0.43715751507E+02  0.63694875940E+02  0.12500000000E+03  0.80419002446E+02 0.  1.
        -24    1    1    2    0    0 -0.56477251126E+02 -0.43715751507E+02 -0.63694875940E+02  0.12500000000E+03  0.80419002446E+02 0. -1.
</event>
<event>
 4    1  0.1590495E-001  0.1250000E+03  0.7546771E-02  0.1126479E+00
        -11   -1    0    0    0    0  0.00000000000E+00  0.00000000000E+00  0.12500000000E+03  0.12500000000E+03  0.00000000000E+00 0.  1.
         11   -1    0    0    0    0 -0.00000000000E+00 -0.00000000000E+00 -0.12500000000E+03  0.12500000000E+03  0.00000000000E+00 0. -1.
         24    1    1    2    0    0  0.33689015946E+02  0.68574101431E+01  0.89307391499E+02  0.12500000000E+03  0.80419002446E+02 0.  1.
        -24    1    1    2    0    0 -0.33689015946E+02 -0.68574101431E+01 -0.89307391499E+02  0.12500000000E+03  0.80419002446E+02 0. -1.
</event>
<event>
 4    1  0.1590495E-001  0.1250000E+03  0.7546771E-02  0.1126479E+00
        -11   -1    0    0    0    0  0.00000000000E+00  0.00000000000E+00  0.12500000000E+03  0.12500000000E+03  0.00000000000E+00 0.  1.
         11   -1    0    0    0    0 -0.00000000000E+00 -0.00000000000E+00 -0.12500000000E+03  0.12500000000E+03  0.00000000000E+00 0. -1.
         24    1    1    2    0    0 -0.20852400948E+01 -0.12829084473E+02  0.94809548100E+02  0.12500000000E+03  0.80419002446E+02 0.  1.
        -24    1    1    2    0    0  0.20852400948E+01  0.12829084473E+02 -0.94809548100E+02  0.12500000000E+03  0.80419002446E+02 0.  0.
</event>
<event>
 4    1  0.1590495E-001  0.1250000E+03  0.7546771E-02  0.1126479E+00
        -11   -1    0    0    0    0  0.00000000000E+00  0.00000000000E+00  0.12500000000E+03  0.12500000000E+03  0.00000000000E+00 0.  1.
         11   -1    0    0    0    0 -0.00000000000E+00 -0.00000000000E+00 -0.12500000000E+03  0.12500000000E+03  0.00000000000E+00 0. -1.
         24    1    1    2    0    0  0.31464371263E+02  0.26919103449E+02  0.86273630132E+02  0.12500000000E+03  0.80419002446E+02 0.  1.
        -24    1    1    2    0    0 -0.31464371263E+02 -0.26919103449E+02 -0.86273630132E+02  0.12500000000E+03  0.80419002446E+02 0. -1.
</event>
<event>
 4    1  0.1590495E-001  0.1250000E+03  0.7546771E-02  0.1126479E+00
        -11   -1    0    0    0    0  0.00000000000E+00  0.00000000000E+00  0.12500000000E+03  0.12500000000E+03  0.00000000000E+00 0.  1.
         11   -1    0    0    0    0 -0.00000000000E+00 -0.00000000000E+00 -0.12500000000E+03  0.12500000000E+03  0.00000000000E+00 0. -1.
         24    1    1    2    0    0 -0.70781693299E+02 -0.45580581649E+02  0.45498862798E+02  0.12500000000E+03  0.80419002446E+02 0.  0.
        -24    1    1    2    0    0  0.70781693299E+02  0.45580581649E+02 -0.45498862798E+02  0.12500000000E+03  0.80419002446E+02 0. -1.
</event>
<event>
 4    1  0.1590495E-001  0.1250000E+03  0.7546771E-02  0.1126479E+00
        -11   -1    0    0    0    0  0.00000000000E+00  0.00000000000E+00  0.12500000000E+03  0.12500000000E+03  0.00000000000E+00 0.  1.
         11   -1    0    0    0    0 -0.00000000000E+00 -0.00000000000E+00 -0.12500000000E+03  0.12500000000E+03  0.00000000000E+00 0. -1.
         24    1    1    2    0    0 -0.43519251263E+02  0.47256806737E+02  0.70927096600E+02  0.12500000000E+03  0.80419002446E+02 0.  1.
        -24    1    1    2    0    0  0.43519251263E+02 -0.47256806737E+02 -0.70927096600E+02  0.12500000000E+03  0.80419002446E+02 0.  0.
</event>
<event>
 4    1  0.1590495E-001  0.1250000E+03  0.7546771E-02  0.1126479E+00
        -11   -1    0    0    0    0  0.00000000000E+00  0.00000000000E+00  0.12500000000E+03  0.12500000000E+03  0.00000000000E+00 0.  1.
         11   -1    0    0    0    0 -0.00000000000E+00 -0.00000000000E+00 -0.12500000000E+03  0.12500000000E+03  0.00000000000E+00 0. -1.
         24    1    1    2    0    0  0.45326219876E+02 -0.77897413342E+02 -0.32176246393E+02  0.12500000000E+03  0.80419002446E+02 0.  1.
        -24    1    1    2    0    0 -0.45326219876E+02  0.77897413342E+02  0.32176246393E+02  0.12500000000E+03  0.80419002446E+02 0. -1.
</event>
<event>
 4    1  0.1590495E-001  0.1250000E+03  0.7546771E-02  0.1126479E+00
        -11   -1    0    0    0    0  0.00000000000E+00  0.00000000000E+00  0.12500000000E+03  0.12500000000E+03  0.00000000000E+00 0.  1.
         11   -1    0    0    0    0 -0.00000000000E+00 -0.00000000000E+00 -0.12500000000E+03  0.12500000000E+03  0.00000000000E+00 0. -1.
         24    1    1    2    0    0  0.31590964808E+02 -0.70963588546E+02 -0.55892433199E+02  0.12500000000E+03  0.80419002446E+02 0.  0.
        -24    1    1    2    0    0 -0.31590964808E+02  0.70963588546E+02  0.55892433199E+02  0.12500000000E+03  0.80419002446E+02 0.  0.
</event>
<event>
 4    1  0.1590495E-001  0.1250000E+03  0.7546771E-02  0.1126479E+00
        -11   -1    0    0    0    0  0.00000000000E+00  0.00000000000E+00  0.12500000000E+03  0.12500000000E+03  0.00000000000E+00 0.  1.
         11   -1    0    0    0    0 -0.00000000000E+00 -0.00000000000E+00 -0.12500000000E+03  0.12500000000E+03  0.00000000000E+00 0. -1.
         24    1    1    2    0    0 -0.53134285753E+02  0.32501775737E+02  0.72650989650E+02  0.12500000000E+03  0.80419002446E+02 0.  1.
        -24    1    1    2    0    0  0.53134285753E+02 -0.32501775737E+02 -0.72650989650E+02  0.12500000000E+03  0.80419002446E+02 0. -1.
</event>
<event>
 4    1  0.1590495E-001  0.1250000E+03  0.7546771E-02  0.1126479E+00
        -11   -1    0    0    0    0  0.00000000000E+00  0.00000000000E+00  0.12500000000E+03  0.12500000000E+03  0.00000000000E+00 0.  1.
         11   -1    0    0    0    0 -0.00000000000E+00 -0.00000000000E+00 -0.12500000000E+03  0.12500000000E+03  0.00000000000E+00 0. -1.
         24    1    1    2    0    0 -0.69147588076E+01 -0.88516714339E+02  0.35703801463E+02  0.12500000000E+03  0.80419002446E+02 0.  1.
        -24    1    1    2    0    0  0.69147588076E+01  0.88516714339E+02 -0.35703801463E+02  0.12500000000E+03  0.80419002446E+02 0.  0.
</event>
<event>
 4    1  0.1590495E-001  0.1250000E+03  0.7546771E-02  0.1126479E+00
        -11   -1    0    0    0    0  0.00000000000E+00  0.00000000000E+00  0.12500000000E+03  0.12500000000E+03  0.00000000000E+00 0.  1.
         11   -1    0    0    0    0 -0.00000000000E+00 -0.00000000000E+00 -0.12500000000E+03  0.12500000000E+03  0.00000000000E+00 0. -1.
         24    1    1    2    0    0 -0.12891263895E+02 -0.26140850299E+02  0.91149631412E+02  0.12500000000E+03  0.80419002446E+02 0.  1.
        -24    1    1    2    0    0  0.12891263895E+02  0.26140850299E+02 -0.91149631412E+02  0.12500000000E+03  0.80419002446E+02 0. -1.
</event>
<event>
 4    1  0.1590495E-001  0.1250000E+03  0.7546771E-02  0.1126479E+00
        -11   -1    0    0    0    0  0.00000000000E+00  0.00000000000E+00  0.12500000000E+03  0.12500000000E+03  0.00000000000E+00 0.  1.
         11   -1    0    0    0    0 -0.00000000000E+00 -0.00000000000E+00 -0.12500000000E+03  0.12500000000E+03  0.00000000000E+00 0. -1.
         24    1    1    2    0    0 -0.54081436095E+02  0.63573018184E+02  0.46812964813E+02  0.12500000000E+03  0.80419002446E+02 0.  1.
        -24    1    1    2    0    0  0.54081436095E+02 -0.63573018184E+02 -0.46812964813E+02  0.12500000000E+03  0.80419002446E+02 0. -1.
</event>
<event>
 4    1  0.1590495E-001  0.1250000E+03  0.7546771E-02  0.1126479E+00
        -11   -1    0    0    0    0  0.00000000000E+00  0.00000000000E+00  0.12500000000E+03  0.12500000000E+03  0.00000000000E+00 0.  1.
         11   -1    0    0    0    0 -0.00000000000E+00 -0.00000000000E+00 -0.12500000000E+03  0.12500000000E+03  0.00000000000E+00 0. -1.
         24    1    1    2    0    0  0.38232780360E+02  0.30752096001E+02  0.82160496244E+02  0.12500000000E+03  0.80419002446E+02 0.  1.
        -24    1    1    2    0    0 -0.38232780360E+02 -0.30752096001E+02 -0.82160496244E+02  0.12500000000E+03  0.80419002446E+02 0. -1.
</event>
<event>
 4    1  0.1590495E-001  0.1250000E+03  0.7546771E-02  0.1126479E+00
        -11   -1    0    0    0    0  0.00000000000E+00  0.00000000000E+00  0.12500000000E+03  0.12500000000E+03  0.00000000000E+00 0.  1.
         11   -1    0    0    0    0 -0.00000000000E+00 -0.00000000000E+00 -0.12500000000E+03  0.12500000000E+03  0.00000000000E+00 0. -1.
         24    1    1    2    0    0  0.33581747059E+02 -0.22731530064E+02  0.86679454607E+02  0.12500000000E+03  0.80419002446E+02 0.  1.
        -24    1    1    2    0    0 -0.33581747059E+02  0.22731530064E+02 -0.86679454607E+02  0.12500000000E+03  0.80419002446E+02 0. -1.
</event>
<event>
 4    1  0.1590495E-001  0.1250000E+03  0.7546771E-02  0.1126479E+00
        -11   -1    0    0    0    0  0.00000000000E+00  0.00000000000E+00  0.12500000000E+03  0.12500000000E+03  0.00000000000E+00 0.  1.
         11   -1    0    0    0    0 -0.00000000000E+00 -0.00000000000E+00 -0.12500000000E+03  0.12500000000E+03  0.00000000000E+00 0. -1.
         24    1    1    2    0    0 -0.68141434081E+01  0.85070863436E+01  0.95073555615E+02  0.12500000000E+03  0.80419002446E+02 0.  0.
        -24    1    1    2    0    0  0.68141434081E+01 -0.85070863436E+01 -0.95073555615E+02  0.12500000000E+03  0.80419002446E+02 0. -1.
</event>
<event>
 4    1  0.1590495E-001  0.1250000E+03  0.7546771E-02  0.1126479E+00
        -11   -1    0    0    0    0  0.00000000000E+00  0.00000000000E+00  0.12500000000E+03  0.12500000000E+03  0.00000000000E+00 0.  1.
         11   -1    0    0    0    0 -0.00000000000E+00 -0.00000000000E+00 -0.12500000000E+03  0.12500000000E+03  0.00000000000E+00 0. -1.
         24    1    1    2    0    0 -0.40454208054E+01 -0.39904961940E+02  0.86885054116E+02  0.12500000000E+03  0.80419002446E+02 0.  1.
        -24    1    1    2    0    0  0.40454208054E+01  0.39904961940E+02 -0.86885054116E+02  0.12500000000E+03  0.80419002446E+02 0. -1.
</event>
<event>
 4    1  0.1590495E-001  0.1250000E+03  0.7546771E-02  0.1126479E+00
        -11   -1    0    0    0    0  0.00000000000E+00  0.00000000000E+00  0.12500000000E+03  0.12500000000E+03  0.00000000000E+00 0.  1.
         11   -1    0    0    0    0 -0.00000000000E+00 -0.00000000000E+00 -0.12500000000E+03  0.12500000000E+03  0.00000000000E+00 0. -1.
         24    1    1    2    0    0  0.55975329577E+02 -0.98109764555E+01  0.76995397689E+02  0.12500000000E+03  0.80419002446E+02 0.  1.
        -24    1    1    2    0    0 -0.55975329577E+02  0.98109764555E+01 -0.76995397689E+02  0.12500000000E+03  0.80419002446E+02 0. -1.
</event>
<event>
 4    1  0.1590495E-001  0.1250000E+03  0.7546771E-02  0.1126479E+00
        -11   -1    0    0    0    0  0.00000000000E+00  0.00000000000E+00  0.12500000000E+03  0.12500000000E+03  0.00000000000E+00 0.  1.
         11   -1    0    0    0    0 -0.00000000000E+00 -0.00000000000E+00 -0.12500000000E+03  0.12500000000E+03  0.00000000000E+00 0. -1.
         24    1    1    2    0    0 -0.88500241547E+00  0.57042310663E+02  0.76832126162E+02  0.12500000000E+03  0.80419002446E+02 0.  1.
        -24    1    1    2    0    0  0.88500241547E+00 -0.57042310663E+02 -0.76832126162E+02  0.12500000000E+03  0.80419002446E+02 0. -1.
</event>
<event>
 4    1  0.1590495E-001  0.1250000E+03  0.7546771E-02  0.1126479E+00
        -11   -1    0    0    0    0  0.00000000000E+00  0.00000000000E+00  0.12500000000E+03  0.12500000000E+03  0.00000000000E+00 0.  1.
         11   -1    0    0    0    0 -0.00000000000E+00 -0.00000000000E+00 -0.12500000000E+03  0.12500000000E+03  0.00000000000E+00 0. -1.
         24    1    1    2    0    0  0.95416548530E+02 -0.71339574171E+01 -0.16040460674E+01  0.12500000000E+03  0.80419002446E+02 0. -1.
        -24    1    1    2    0    0 -0.95416548530E+02  0.71339574171E+01  0.16040460674E+01  0.12500000000E+03  0.80419002446E+02 0.  1.
</event>
<event>
 4    1  0.1590495E-001  0.1250000E+03  0.7546771E-02  0.1126479E+00
        -11   -1    0    0    0    0  0.00000000000E+00  0.00000000000E+00  0.12500000000E+03  0.12500000000E+03  0.00000000000E+00 0.  1.
         11   -1    0    0    0    0 -0.00000000000E+00 -0.00000000000E+00 -0.12500000000E+03  0.12500000000E+03  0.00000000000E+00 0. -1.
         24    1    1    2    0    0 -0.78765574167E+02 -0.48109517670E+02 -0.25283249025E+02  0.12500000000E+03  0.80419002446E+02 0. -1.
        -24    1    1    2    0    0  0.78765574167E+02  0.48109517670E+02  0.25283249025E+02  0.12500000000E+03  0.80419002446E+02 0.  1.
</event>
<event>
 4    1  0.1590495E-001  0.1250000E+03  0.7546771E-02  0.1126479E+00
        -11   -1    0    0    0    0  0.00000000000E+00  0.00000000000E+00  0.12500000000E+03  0.12500000000E+03  0.00000000000E+00 0.  1.
         11   -1    0    0    0    0 -0.00000000000E+00 -0.00000000000E+00 -0.12500000000E+03  0.12500000000E+03  0.00000000000E+00 0. -1.
         24    1    1    2    0    0  0.45302494574E+02 -0.29320404970E+01  0.84242929493E+02  0.12500000000E+03  0.80419002446E+02 0.  1.
        -24    1    1    2    0    0 -0.45302494574E+02  0.29320404970E+01 -0.84242929493E+02  0.12500000000E+03  0.80419002446E+02 0. -1.
</event>
<event>
 4    1  0.1590495E-001  0.1250000E+03  0.7546771E-02  0.1126479E+00
        -11   -1    0    0    0    0  0.00000000000E+00  0.00000000000E+00  0.12500000000E+03  0.12500000000E+03  0.00000000000E+00 0.  1.
         11   -1    0    0    0    0 -0.00000000000E+00 -0.00000000000E+00 -0.12500000000E+03  0.12500000000E+03  0.00000000000E+00 0. -1.
         24    1    1    2    0    0  0.24899431684E+02 -0.31439987459E+02  0.86886877813E+02  0.12500000000E+03  0.80419002446E+02 0.  1.
        -24    1    1    2    0    0 -0.24899431684E+02  0.31439987459E+02 -0.86886877813E+02  0.12500000000E+03  0.80419002446E+02 0. -1.
</event>
<event>
 4    1  0.1590495E-001  0.1250000E+03  0.7546771E-02  0.1126479E+00
        -11   -1    0    0    0    0  0.00000000000E+00  0.00000000000E+00  0.12500000000E+03  0.12500000000E+03  0.00000000000E+00 0.  1.
         11   -1    0    0    0    0 -0.00000000000E+00 -0.00000000000E+00 -0.12500000000E+03  0.12500000000E+03  0.00000000000E+00 0. -1.
         24    1    1    2    0    0 -0.54163943373E+02  0.78213991295E+02  0.10325834089E+02  0.12500000000E+03  0.80419002446E+02 0.  1.
        -24    1    1    2    0    0  0.54163943373E+02 -0.78213991295E+02 -0.10325834089E+02  0.12500000000E+03  0.80419002446E+02 0. -1.
</event>
<event>
 4    1  0.1590495E-001  0.1250000E+03  0.7546771E-02  0.1126479E+00
        -11   -1    0    0    0    0  0.00000000000E+00  0.00000000000E+00  0.12500000000E+03  0.12500000000E+03  0.00000000000E+00 0.  1.
         11   -1    0    0    0    0 -0.00000000000E+00 -0.00000000000E+00 -0.12500000000E+03  0.12500000000E+03  0.00000000000E+00 0. -1.
         24    1    1    2    0    0 -0.34691216957E+02  0.32547634777E+02  0.83035865637E+02  0.12500000000E+03  0.80419002446E+02 0.  1.
        -24    1    1    2    0    0  0.34691216957E+02 -0.32547634777E+02 -0.83035865637E+02  0.12500000000E+03  0.80419002446E+02 0. -1.
</event>
<event>
 4    1  0.1590495E-001  0.1250000E+03  0.7546771E-02  0.1126479E+00
        -11   -1    0    0    0    0  0.00000000000E+00  0.00000000000E+00  0.12500000000E+03  0.12500000000E+03  0.00000000000E+00 0.  1.
         11   -1    0    0    0    0 -0.00000000000E+00 -0.00000000000E+00 -0.12500000000E+03  0.12500000000E+03  0.00000000000E+00 0. -1.
         24    1    1    2    0    0 -0.57739064432E+02 -0.50107957729E+02  0.57560203756E+02  0.12500000000E+03  0.80419002446E+02 0.  1.
        -24    1    1    2    0    0  0.57739064432E+02  0.50107957729E+02 -0.57560203756E+02  0.12500000000E+03  0.80419002446E+02 0.  0.
</event>
<event>
 4    1  0.1590495E-001  0.1250000E+03  0.7546771E-02  0.1126479E+00
        -11   -1    0    0    0    0  0.00000000000E+00  0.00000000000E+00  0.12500000000E+03  0.12500000000E+03  0.00000000000E+00 0.  1.
         11   -1    0    0    0    0 -0.00000000000E+00 -0.00000000000E+00 -0.12500000000E+03  0.12500000000E+03  0.00000000000E+00 0. -1.
         24    1    1    2    0    0  0.10422468826E+01 -0.24785516073E+01  0.95658530979E+02  0.12500000000E+03  0.80419002446E+02 0.  1.
        -24    1    1    2    0    0 -0.10422468826E+01  0.24785516073E+01 -0.95658530979E+02  0.12500000000E+03  0.80419002446E+02 0.  0.
</event>
<event>
 4    1  0.1590495E-001  0.1250000E+03  0.7546771E-02  0.1126479E+00
        -11   -1    0    0    0    0  0.00000000000E+00  0.00000000000E+00  0.12500000000E+03  0.12500000000E+03  0.00000000000E+00 0.  1.
         11   -1    0    0    0    0 -0.00000000000E+00 -0.00000000000E+00 -0.12500000000E+03  0.12500000000E+03  0.00000000000E+00 0. -1.
         24    1    1    2    0    0 -0.23762792679E+02 -0.76669865928E+02  0.52104178223E+02  0.12500000000E+03  0.80419002446E+02 0.  1.
        -24    1    1    2    0    0  0.23762792679E+02  0.76669865928E+02 -0.52104178223E+02  0.12500000000E+03  0.80419002446E+02 0. -1.
</event>
<event>
 4    1  0.1590495E-001  0.1250000E+03  0.7546771E-02  0.1126479E+00
        -11   -1    0    0    0    0  0.00000000000E+00  0.00000000000E+00  0.12500000000E+03  0.12500000000E+03  0.00000000000E+00 0.  1.
         11   -1    0    0    0    0 -0.00000000000E+00 -0.00000000000E+00 -0.12500000000E+03  0.12500000000E+03  0.00000000000E+00 0. -1.
         24    1    1    2    0    0 -0.34327717776E+01  0.18479469927E+02  0.93832346847E+02  0.12500000000E+03  0.80419002446E+02 0.  0.
        -24    1    1    2    0    0  0.34327717776E+01 -0.18479469927E+02 -0.93832346847E+02  0.12500000000E+03  0.80419002446E+02 0. -1.
</event>
<event>
 4    1  0.1590495E-001  0.1250000E+03  0.7546771E-02  0.1126479E+00
        -11   -1    0    0    0    0  0.00000000000E+00  0.00000000000E+00  0.12500000000E+03  0.12500000000E+03  0.00000000000E+00 0.  1.
         11   -1    0    0    0    0 -0.00000000000E+00 -0.00000000000E+00 -0.12500000000E+03  0.12500000000E+03  0.00000000000E+00 0. -1.
         24    1    1    2    0    0 -0.74945714199E+02  0.22484698507E+02  0.55094122208E+02  0.12500000000E+03  0.80419002446E+02 0.  1.
        -24    1    1    2    0    0  0.74945714199E+02 -0.22484698507E+02 -0.55094122208E+02  0.12500000000E+03  0.80419002446E+02 0. -1.
</event>
<event>
 4    1  0.1590495E-001  0.1250000E+03  0.7546771E-02  0.1126479E+00
        -11   -1    0    0    0    0  0.00000000000E+00  0.00000000000E+00  0.12500000000E+03  0.12500000000E+03  0.00000000000E+00 0.  1.
         11   -1    0    0    0    0 -0.00000000000E+00 -0.00000000000E+00 -0.12500000000E+03  0.12500000000E+03  0.00000000000E+00 0. -1.
         24    1    1    2    0    0 -0.10420203792E+02  0.30105313688E+02  0.90237871686E+02  0.12500000000E+03  0.80419002446E+02 0.  0.
        -24    1    1    2    0    0  0.10420203792E+02 -0.30105313688E+02 -0.90237871686E+02  0.12500000000E+03  0.80419002446E+02 0. -1.
</event>
<event>
 4    1  0.1590495E-001  0.1250000E+03  0.7546771E-02  0.1126479E+00
        -11   -1    0    0    0    0  0.00000000000E+00  0.00000000000E+00  0.12500000000E+03  0.12500000000E+03  0.00000000000E+00 0.  1.
         11   -1    0    0    0    0 -0.00000000000E+00 -0.00000000000E+00 -0.12500000000E+03  0.12500000000E+03  0.00000000000E+00 0. -1.
         24    1    1    2    0    0  0.14620181318E+02 -0.33766351745E+02  0.88339503246E+02  0.12500000000E+03  0.80419002446E+02 0.  1.
        -24    1    1    2    0    0 -0.14620181318E+02  0.33766351745E+02 -0.88339503246E+02  0.12500000000E+03  0.80419002446E+02 0. -1.
</event>
<event>
 4    1  0.1590495E-001  0.1250000E+03  0.7546771E-02  0.1126479E+00
        -11   -1    0    0    0    0  0.00000000000E+00  0.00000000000E+00  0.12500000000E+03  0.12500000000E+03  0.00000000000E+00 0. -1.
         11   -1    0    0    0    0 -0.00000000000E+00 -0.00000000000E+00 -0.12500000000E+03  0.12500000000E+03  0.00000000000E+00 0.  1.
         24    1    1    2    0    0 -0.53376443914E+02 -0.78943298913E+02 -0.87575588787E+01  0.12500000000E+03  0.80419002446E+02 0. -1.
        -24    1    1    2    0    0  0.53376443914E+02  0.78943298913E+02  0.87575588787E+01  0.12500000000E+03  0.80419002446E+02 0. -1.
</event>
<event>
 4    1  0.1590495E-001  0.1250000E+03  0.7546771E-02  0.1126479E+00
        -11   -1    0    0    0    0  0.00000000000E+00  0.00000000000E+00  0.12500000000E+03  0.12500000000E+03  0.00000000000E+00 0.  1.
         11   -1    0    0    0    0 -0.00000000000E+00 -0.00000000000E+00 -0.12500000000E+03  0.12500000000E+03  0.00000000000E+00 0. -1.
         24    1    1    2    0    0 -0.17322541938E+01 -0.37633031238E+02  0.87968962145E+02  0.12500000000E+03  0.80419002446E+02 0.  1.
        -24    1    1    2    0    0  0.17322541938E+01  0.37633031238E+02 -0.87968962145E+02  0.12500000000E+03  0.80419002446E+02 0. -1.
</event>
<event>
 4    1  0.1590495E-001  0.1250000E+03  0.7546771E-02  0.1126479E+00
        -11   -1    0    0    0    0  0.00000000000E+00  0.00000000000E+00  0.12500000000E+03  0.12500000000E+03  0.00000000000E+00 0.  1.
         11   -1    0    0    0    0 -0.00000000000E+00 -0.00000000000E+00 -0.12500000000E+03  0.12500000000E+03  0.00000000000E+00 0. -1.
         24    1    1    2    0    0  0.44790679338E+02 -0.66159578464E+02  0.52673420884E+02  0.12500000000E+03  0.80419002446E+02 0.  1.
        -24    1    1    2    0    0 -0.44790679338E+02  0.66159578464E+02 -0.52673420884E+02  0.12500000000E+03  0.80419002446E+02 0. -1.
</event>
<event>
 4    1  0.1590495E-001  0.1250000E+03  0.7546771E-02  0.1126479E+00
        -11   -1    0    0    0    0  0.00000000000E+00  0.00000000000E+00  0.12500000000E+03  0.12500000000E+03  0.00000000000E+00 0.  1.
         11   -1    0    0    0    0 -0.00000000000E+00 -0.00000000000E+00 -0.12500000000E+03  0.12500000000E+03  0.00000000000E+00 0. -1.
         24    1    1    2    0    0  0.10611061920E+02  0.11863214651E+02  0.94363412129E+02  0.12500000000E+03  0.80419002446E+02 0.  1.
        -24    1    1    2    0    0 -0.10611061920E+02 -0.11863214651E+02 -0.94363412129E+02  0.12500000000E+03  0.80419002446E+02 0. -1.
</event>
<event>
 4    1  0.1590495E-001  0.1250000E+03  0.7546771E-02  0.1126479E+00
        -11   -1    0    0    0    0  0.00000000000E+00  0.00000000000E+00  0.12500000000E+03  0.12500000000E+03  0.00000000000E+00 0.  1.
         11   -1    0    0    0    0 -0.00000000000E+00 -0.00000000000E+00 -0.12500000000E+03  0.12500000000E+03  0.00000000000E+00 0. -1.
         24    1    1    2    0    0  0.39972460761E+02 -0.13415579539E+02  0.85906976736E+02  0.12500000000E+03  0.80419002446E+02 0.  1.
        -24    1    1    2    0    0 -0.39972460761E+02  0.13415579539E+02 -0.85906976736E+02  0.12500000000E+03  0.80419002446E+02 0.  1.
</event>
<event>
 4    1  0.1590495E-001  0.1250000E+03  0.7546771E-02  0.1126479E+00
        -11   -1    0    0    0    0  0.00000000000E+00  0.00000000000E+00  0.12500000000E+03  0.12500000000E+03  0.00000000000E+00 0.  1.
         11   -1    0    0    0    0 -0.00000000000E+00 -0.00000000000E+00 -0.12500000000E+03  0.12500000000E+03  0.00000000000E+00 0. -1.
         24    1    1    2    0    0 -0.40051319933E+02 -0.87663294540E+01  0.86468649146E+02  0.12500000000E+03  0.80419002446E+02 0.  1.
        -24    1    1    2    0    0  0.40051319933E+02  0.87663294540E+01 -0.86468649146E+02  0.12500000000E+03  0.80419002446E+02 0. -1.
</event>
<event>
 4    1  0.1590495E-001  0.1250000E+03  0.7546771E-02  0.1126479E+00
        -11   -1    0    0    0    0  0.00000000000E+00  0.00000000000E+00  0.12500000000E+03  0.12500000000E+03  0.00000000000E+00 0.  1.
         11   -1    0    0    0    0 -0.00000000000E+00 -0.00000000000E+00 -0.12500000000E+03  0.12500000000E+03  0.00000000000E+00 0. -1.
         24    1    1    2    0    0 -0.44808586716E+02  0.14823019183E+02  0.83248139345E+02  0.12500000000E+03  0.80419002446E+02 0.  1.
        -24    1    1    2    0    0  0.44808586716E+02 -0.14823019183E+02 -0.83248139345E+02  0.12500000000E+03  0.80419002446E+02 0. -1.
</event>
<event>
 4    1  0.1590495E-001  0.1250000E+03  0.7546771E-02  0.1126479E+00
        -11   -1    0    0    0    0  0.00000000000E+00  0.00000000000E+00  0.12500000000E+03  0.12500000000E+03  0.00000000000E+00 0.  1.
         11   -1    0    0    0    0 -0.00000000000E+00 -0.00000000000E+00 -0.12500000000E+03  0.12500000000E+03  0.00000000000E+00 0. -1.
         24    1    1    2    0    0  0.77309731574E+02 -0.53789515517E+02  0.16961057453E+02  0.12500000000E+03  0.80419002446E+02 0.  1.
        -24    1    1    2    0    0 -0.77309731574E+02  0.53789515517E+02 -0.16961057453E+02  0.12500000000E+03  0.80419002446E+02 0. -1.
</event>
<event>
 4    1  0.1590495E-001  0.1250000E+03  0.7546771E-02  0.1126479E+00
        -11   -1    0    0    0    0  0.00000000000E+00  0.00000000000E+00  0.12500000000E+03  0.12500000000E+03  0.00000000000E+00 0.  1.
         11   -1    0    0    0    0 -0.00000000000E+00 -0.00000000000E+00 -0.12500000000E+03  0.12500000000E+03  0.00000000000E+00 0. -1.
         24    1    1    2    0    0 -0.71456496233E+02 -0.11179937302E+02  0.62663882689E+02  0.12500000000E+03  0.80419002446E+02 0.  1.
        -24    1    1    2    0    0  0.71456496233E+02  0.11179937302E+02 -0.62663882689E+02  0.12500000000E+03  0.80419002446E+02 0. -1.
</event>
<event>
 4    1  0.1590495E-001  0.1250000E+03  0.7546771E-02  0.1126479E+00
        -11   -1    0    0    0    0  0.00000000000E+00  0.00000000000E+00  0.12500000000E+03  0.12500000000E+03  0.00000000000E+00 0.  1.
         11   -1    0    0    0    0 -0.00000000000E+00 -0.00000000000E+00 -0.12500000000E+03  0.12500000000E+03  0.00000000000E+00 0. -1.
         24    1    1    2    0    0 -0.36631598655E+01 -0.70436479108E+02  0.64676639649E+02  0.12500000000E+03  0.80419002446E+02 0.  1.
        -24    1    1    2    0    0  0.36631598655E+01  0.70436479108E+02 -0.64676639649E+02  0.12500000000E+03  0.80419002446E+02 0.  0.
</event>
<event>
 4    1  0.1590495E-001  0.1250000E+03  0.7546771E-02  0.1126479E+00
        -11   -1    0    0    0    0  0.00000000000E+00  0.00000000000E+00  0.12500000000E+03  0.12500000000E+03  0.00000000000E+00 0.  1.
         11   -1    0    0    0    0 -0.00000000000E+00 -0.00000000000E+00 -0.12500000000E+03  0.12500000000E+03  0.00000000000E+00 0. -1.
         24    1    1    2    0    0 -0.10452959026E+02  0.29798639187E+02  0.90335822329E+02  0.12500000000E+03  0.80419002446E+02 0.  1.
        -24    1    1    2    0    0  0.10452959026E+02 -0.29798639187E+02 -0.90335822329E+02  0.12500000000E+03  0.80419002446E+02 0. -1.
</event>
<event>
 4    1  0.1590495E-001  0.1250000E+03  0.7546771E-02  0.1126479E+00
        -11   -1    0    0    0    0  0.00000000000E+00  0.00000000000E+00  0.12500000000E+03  0.12500000000E+03  0.00000000000E+00 0.  1.
         11   -1    0    0    0    0 -0.00000000000E+00 -0.00000000000E+00 -0.12500000000E+03  0.12500000000E+03  0.00000000000E+00 0. -1.
         24    1    1    2    0    0 -0.38540913713E+02  0.36792847006E+02  0.79490052365E+02  0.12500000000E+03  0.80419002446E+02 0.  1.
        -24    1    1    2    0    0  0.38540913713E+02 -0.36792847006E+02 -0.79490052365E+02  0.12500000000E+03  0.80419002446E+02 0. -1.
</event>
<event>
 4    1  0.1590495E-001  0.1250000E+03  0.7546771E-02  0.1126479E+00
        -11   -1    0    0    0    0  0.00000000000E+00  0.00000000000E+00  0.12500000000E+03  0.12500000000E+03  0.00000000000E+00 0.  1.
         11   -1    0    0    0    0 -0.00000000000E+00 -0.00000000000E+00 -0.12500000000E+03  0.12500000000E+03  0.00000000000E+00 0. -1.
         24    1    1    2    0    0  0.35351105826E+02 -0.51247041126E+01  0.88779619115E+02  0.12500000000E+03  0.80419002446E+02 0.  1.
        -24    1    1    2    0    0 -0.35351105826E+02  0.51247041126E+01 -0.88779619115E+02  0.12500000000E+03  0.80419002446E+02 0. -1.
</event>
<event>
 4    1  0.1590495E-001  0.1250000E+03  0.7546771E-02  0.1126479E+00
        -11   -1    0    0    0    0  0.00000000000E+00  0.00000000000E+00  0.12500000000E+03  0.12500000000E+03  0.00000000000E+00 0.  1.
         11   -1    0    0    0    0 -0.00000000000E+00 -0.00000000000E+00 -0.12500000000E+03  0.12500000000E+03  0.00000000000E+00 0. -1.
         24    1    1    2    0    0 -0.31784687438E+02 -0.25132211806E+02  0.86694230603E+02  0.12500000000E+03  0.80419002446E+02 0.  0.
        -24    1    1    2    0    0  0.31784687438E+02  0.25132211806E+02 -0.86694230603E+02  0.12500000000E+03  0.80419002446E+02 0.  0.
</event>
<event>
 4    1  0.1590495E-001  0.1250000E+03  0.7546771E-02  0.1126479E+00
        -11   -1    0    0    0    0  0.00000000000E+00  0.00000000000E+00  0.12500000000E+03  0.12500000000E+03  0.00000000000E+00 0.  1.
         11   -1    0    0    0    0 -0.00000000000E+00 -0.00000000000E+00 -0.12500000000E+03  0.12500000000E+03  0.00000000000E+00 0. -1.
         24    1    1    2    0    0  0.24266651662E+01 -0.13586833031E+02  0.94695793518E+02  0.12500000000E+03  0.80419002446E+02 0.  1.
        -24    1    1    2    0    0 -0.24266651662E+01  0.13586833031E+02 -0.94695793518E+02  0.12500000000E+03  0.80419002446E+02 0.  0.
</event>
<event>
 4    1  0.1590495E-001  0.1250000E+03  0.7546771E-02  0.1126479E+00
        -11   -1    0    0    0    0  0.00000000000E+00  0.00000000000E+00  0.12500000000E+03  0.12500000000E+03  0.00000000000E+00 0.  1.
         11   -1    0    0    0    0 -0.00000000000E+00 -0.00000000000E+00 -0.12500000000E+03  0.12500000000E+03  0.00000000000E+00 0. -1.
         24    1    1    2    0    0 -0.41817650435E+02  0.61304656037E+02  0.60421910809E+02  0.12500000000E+03  0.80419002446E+02 0.  1.
        -24    1    1    2    0    0  0.41817650435E+02 -0.61304656037E+02 -0.60421910809E+02  0.12500000000E+03  0.80419002446E+02 0. -1.
</event>
<event>
 4    1  0.1590495E-001  0.1250000E+03  0.7546771E-02  0.1126479E+00
        -11   -1    0    0    0    0  0.00000000000E+00  0.00000000000E+00  0.12500000000E+03  0.12500000000E+03  0.00000000000E+00 0.  1.
         11   -1    0    0    0    0 -0.00000000000E+00 -0.00000000000E+00 -0.12500000000E+03  0.12500000000E+03  0.00000000000E+00 0. -1.
         24    1    1    2    0    0 -0.25035321173E+02  0.10239204850E+02  0.91794201470E+02  0.12500000000E+03  0.80419002446E+02 0.  1.
        -24    1    1    2    0    0  0.25035321173E+02 -0.10239204850E+02 -0.91794201470E+02  0.12500000000E+03  0.80419002446E+02 0. -1.
</event>
<event>
 4    1  0.1590495E-001  0.1250000E+03  0.7546771E-02  0.1126479E+00
        -11   -1    0    0    0    0  0.00000000000E+00  0.00000000000E+00  0.12500000000E+03  0.12500000000E+03  0.00000000000E+00 0.  1.
         11   -1    0    0    0    0 -0.00000000000E+00 -0.00000000000E+00 -0.12500000000E+03  0.12500000000E+03  0.00000000000E+00 0. -1.
         24    1    1    2    0    0  0.93445443626E+00  0.83204293893E+02  0.47264747099E+02  0.12500000000E+03  0.80419002446E+02 0.  0.
        -24    1    1    2    0    0 -0.93445443626E+00 -0.83204293893E+02 -0.47264747099E+02  0.12500000000E+03  0.80419002446E+02 0. -1.
</event>
<event>
 4    1  0.1590495E-001  0.1250000E+03  0.7546771E-02  0.1126479E+00
        -11   -1    0    0    0    0  0.00000000000E+00  0.00000000000E+00  0.12500000000E+03  0.12500000000E+03  0.00000000000E+00 0.  1.
         11   -1    0    0    0    0 -0.00000000000E+00 -0.00000000000E+00 -0.12500000000E+03  0.12500000000E+03  0.00000000000E+00 0. -1.
         24    1    1    2    0    0 -0.94169424674E+02 -0.87613214993E+01  0.14599409161E+02  0.12500000000E+03  0.80419002446E+02 0.  1.
        -24    1    1    2    0    0  0.94169424674E+02  0.87613214993E+01 -0.14599409161E+02  0.12500000000E+03  0.80419002446E+02 0. -1.
</event>
<event>
 4    1  0.1590495E-001  0.1250000E+03  0.7546771E-02  0.1126479E+00
        -11   -1    0    0    0    0  0.00000000000E+00  0.00000000000E+00  0.12500000000E+03  0.12500000000E+03  0.00000000000E+00 0. -1.
         11   -1    0    0    0    0 -0.00000000000E+00 -0.00000000000E+00 -0.12500000000E+03  0.12500000000E+03  0.00000000000E+00 0.  1.
         24    1    1    2    0    0  0.76526288638E+02 -0.57055999569E+02  0.67914730427E+01  0.12500000000E+03  0.80419002446E+02 0.  0.
        -24    1    1    2    0    0 -0.76526288638E+02  0.57055999569E+02 -0.67914730427E+01  0.12500000000E+03  0.80419002446E+02 0.  0.
</event>
<event>
 4    1  0.1590495E-001  0.1250000E+03  0.7546771E-02  0.1126479E+00
        -11   -1    0    0    0    0  0.00000000000E+00  0.00000000000E+00  0.12500000000E+03  0.12500000000E+03  0.00000000000E+00 0.  1.
         11   -1    0    0    0    0 -0.00000000000E+00 -0.00000000000E+00 -0.12500000000E+03  0.12500000000E+03  0.00000000000E+00 0. -1.
         24    1    1    2    0    0  0.13828201988E+02  0.46788392363E+02  0.82325033954E+02  0.12500000000E+03  0.80419002446E+02 0.  1.
        -24    1    1    2    0    0 -0.13828201988E+02 -0.46788392363E+02 -0.82325033954E+02  0.12500000000E+03  0.80419002446E+02 0. -1.
</event>
<event>
 4    1  0.1590495E-001  0.1250000E+03  0.7546771E-02  0.1126479E+00
        -11   -1    0    0    0    0  0.00000000000E+00  0.00000000000E+00  0.12500000000E+03  0.12500000000E+03  0.00000000000E+00 0.  1.
         11   -1    0    0    0    0 -0.00000000000E+00 -0.00000000000E+00 -0.12500000000E+03  0.12500000000E+03  0.00000000000E+00 0. -1.
         24    1    1    2    0    0 -0.26814613940E+01  0.40639640519E+02  0.86596844220E+02  0.12500000000E+03  0.80419002446E+02 0.  1.
        -24    1    1    2    0    0  0.26814613940E+01 -0.40639640519E+02 -0.86596844220E+02  0.12500000000E+03  0.80419002446E+02 0. -1.
</event>
<event>
 4    1  0.1590495E-001  0.1250000E+03  0.7546771E-02  0.1126479E+00
        -11   -1    0    0    0    0  0.00000000000E+00  0.00000000000E+00  0.12500000000E+03  0.12500000000E+03  0.00000000000E+00 0.  1.
         11   -1    0    0    0    0 -0.00000000000E+00 -0.00000000000E+00 -0.12500000000E+03  0.12500000000E+03  0.00000000000E+00 0. -1.
         24    1    1    2    0    0  0.76406255916E+02 -0.22701680579E+02  0.52957547161E+02  0.12500000000E+03  0.80419002446E+02 0.  1.
        -24    1    1    2    0    0 -0.76406255916E+02  0.22701680579E+02 -0.52957547161E+02  0.12500000000E+03  0.80419002446E+02 0. -1.
</event>
<event>
 4    1  0.1590495E-001  0.1250000E+03  0.7546771E-02  0.1126479E+00
        -11   -1    0    0    0    0  0.00000000000E+00  0.00000000000E+00  0.12500000000E+03  0.12500000000E+03  0.00000000000E+00 0.  1.
         11   -1    0    0    0    0 -0.00000000000E+00 -0.00000000000E+00 -0.12500000000E+03  0.12500000000E+03  0.00000000000E+00 0. -1.
         24    1    1    2    0    0  0.24990142856E+01 -0.46536195230E+02  0.83581825218E+02  0.12500000000E+03  0.80419002446E+02 0.  1.
        -24    1    1    2    0    0 -0.24990142856E+01  0.46536195230E+02 -0.83581825218E+02  0.12500000000E+03  0.80419002446E+02 0. -1.
</event>
<event>
 4    1  0.1590495E-001  0.1250000E+03  0.7546771E-02  0.1126479E+00
        -11   -1    0    0    0    0  0.00000000000E+00  0.00000000000E+00  0.12500000000E+03  0.12500000000E+03  0.00000000000E+00 0.  1.
         11   -1    0    0    0    0 -0.00000000000E+00 -0.00000000000E+00 -0.12500000000E+03  0.12500000000E+03  0.00000000000E+00 0. -1.
         24    1    1    2    0    0  0.39645443315E+01  0.93154577010E+02  0.21547417850E+02  0.12500000000E+03  0.80419002446E+02 0.  1.
        -24    1    1    2    0    0 -0.39645443315E+01 -0.93154577010E+02 -0.21547417850E+02  0.12500000000E+03  0.80419002446E+02 0.  0.
</event>
<event>
 4    1  0.1590495E-001  0.1250000E+03  0.7546771E-02  0.1126479E+00
        -11   -1    0    0    0    0  0.00000000000E+00  0.00000000000E+00  0.12500000000E+03  0.12500000000E+03  0.00000000000E+00 0.  1.
         11   -1    0    0    0    0 -0.00000000000E+00 -0.00000000000E+00 -0.12500000000E+03  0.12500000000E+03  0.00000000000E+00 0. -1.
         24    1    1    2    0    0 -0.33011044365E+02  0.21559217371E+01  0.89796475415E+02  0.12500000000E+03  0.80419002446E+02 0.  1.
        -24    1    1    2    0    0  0.33011044365E+02 -0.21559217371E+01 -0.89796475415E+02  0.12500000000E+03  0.80419002446E+02 0. -1.
</event>
<event>
 4    1  0.1590495E-001  0.1250000E+03  0.7546771E-02  0.1126479E+00
        -11   -1    0    0    0    0  0.00000000000E+00  0.00000000000E+00  0.12500000000E+03  0.12500000000E+03  0.00000000000E+00 0.  1.
         11   -1    0    0    0    0 -0.00000000000E+00 -0.00000000000E+00 -0.12500000000E+03  0.12500000000E+03  0.00000000000E+00 0. -1.
         24    1    1    2    0    0 -0.11793341207E+02 -0.80894907639E+01  0.94621674515E+02  0.12500000000E+03  0.80419002446E+02 0.  1.
        -24    1    1    2    0    0  0.11793341207E+02  0.80894907639E+01 -0.94621674515E+02  0.12500000000E+03  0.80419002446E+02 0. -1.
</event>
<event>
 4    1  0.1590495E-001  0.1250000E+03  0.7546771E-02  0.1126479E+00
        -11   -1    0    0    0    0  0.00000000000E+00  0.00000000000E+00  0.12500000000E+03  0.12500000000E+03  0.00000000000E+00 0.  1.
         11   -1    0    0    0    0 -0.00000000000E+00 -0.00000000000E+00 -0.12500000000E+03  0.12500000000E+03  0.00000000000E+00 0. -1.
         24    1    1    2    0    0 -0.60046263058E+02 -0.74309781471E+02  0.55033368213E+01  0.12500000000E+03  0.80419002446E+02 0.  0.
        -24    1    1    2    0    0  0.60046263058E+02  0.74309781471E+02 -0.55033368213E+01  0.12500000000E+03  0.80419002446E+02 0.  1.
</event>
<event>
 4    1  0.1590495E-001  0.1250000E+03  0.7546771E-02  0.1126479E+00
        -11   -1    0    0    0    0  0.00000000000E+00  0.00000000000E+00  0.12500000000E+03  0.12500000000E+03  0.00000000000E+00 0.  1.
         11   -1    0    0    0    0 -0.00000000000E+00 -0.00000000000E+00 -0.12500000000E+03  0.12500000000E+03  0.00000000000E+00 0. -1.
         24    1    1    2    0    0 -0.66390647168E+02  0.14445960027E+02  0.67389763712E+02  0.12500000000E+03  0.80419002446E+02 0.  1.
        -24    1    1    2    0    0  0.66390647168E+02 -0.14445960027E+02 -0.67389763712E+02  0.12500000000E+03  0.80419002446E+02 0. -1.
</event>
<event>
 4    1  0.1590495E-001  0.1250000E+03  0.7546771E-02  0.1126479E+00
        -11   -1    0    0    0    0  0.00000000000E+00  0.00000000000E+00  0.12500000000E+03  0.12500000000E+03  0.00000000000E+00 0.  1.
         11   -1    0    0    0    0 -0.00000000000E+00 -0.00000000000E+00 -0.12500000000E+03  0.12500000000E+03  0.00000000000E+00 0. -1.
         24    1    1    2    0    0  0.27725786746E+02 -0.32951700910E+02  0.85459055706E+02  0.12500000000E+03  0.80419002446E+02 0.  1.
        -24    1    1    2    0    0 -0.27725786746E+02  0.32951700910E+02 -0.85459055706E+02  0.12500000000E+03  0.80419002446E+02 0. -1.
</event>
<event>
 4    1  0.1590495E-001  0.1250000E+03  0.7546771E-02  0.1126479E+00
        -11   -1    0    0    0    0  0.00000000000E+00  0.00000000000E+00  0.12500000000E+03  0.12500000000E+03  0.00000000000E+00 0.  1.
         11   -1    0    0    0    0 -0.00000000000E+00 -0.00000000000E+00 -0.12500000000E+03  0.12500000000E+03  0.00000000000E+00 0. -1.
         24    1    1    2    0    0 -0.68321942607E+02  0.10624207521E+02  0.66159069058E+02  0.12500000000E+03  0.80419002446E+02 0. -1.
        -24    1    1    2    0    0  0.68321942607E+02 -0.10624207521E+02 -0.66159069058E+02  0.12500000000E+03  0.80419002446E+02 0.  0.
</event>
<event>
 4    1  0.1590495E-001  0.1250000E+03  0.7546771E-02  0.1126479E+00
        -11   -1    0    0    0    0  0.00000000000E+00  0.00000000000E+00  0.12500000000E+03  0.12500000000E+03  0.00000000000E+00 0.  1.
         11   -1    0    0    0    0 -0.00000000000E+00 -0.00000000000E+00 -0.12500000000E+03  0.12500000000E+03  0.00000000000E+00 0. -1.
         24    1    1    2    0    0 -0.24477221039E+02 -0.27128290174E+02  0.88446060218E+02  0.12500000000E+03  0.80419002446E+02 0.  1.
        -24    1    1    2    0    0  0.24477221039E+02  0.27128290174E+02 -0.88446060218E+02  0.12500000000E+03  0.80419002446E+02 0. -1.
</event>
<event>
 4    1  0.1590495E-001  0.1250000E+03  0.7546771E-02  0.1126479E+00
        -11   -1    0    0    0    0  0.00000000000E+00  0.00000000000E+00  0.12500000000E+03  0.12500000000E+03  0.00000000000E+00 0.  1.
         11   -1    0    0    0    0 -0.00000000000E+00 -0.00000000000E+00 -0.12500000000E+03  0.12500000000E+03  0.00000000000E+00 0. -1.
         24    1    1    2    0    0  0.65042724213E+02 -0.30903695610E+02  0.63025309759E+02  0.12500000000E+03  0.80419002446E+02 0.  1.
        -24    1    1    2    0    0 -0.65042724213E+02  0.30903695610E+02 -0.63025309759E+02  0.12500000000E+03  0.80419002446E+02 0. -1.
</event>
<event>
 4    1  0.1590495E-001  0.1250000E+03  0.7546771E-02  0.1126479E+00
        -11   -1    0    0    0    0  0.00000000000E+00  0.00000000000E+00  0.12500000000E+03  0.12500000000E+03  0.00000000000E+00 0.  1.
         11   -1    0    0    0    0 -0.00000000000E+00 -0.00000000000E+00 -0.12500000000E+03  0.12500000000E+03  0.00000000000E+00 0. -1.
         24    1    1    2    0    0 -0.41882141286E+02 -0.15128288680E+02  0.84704221669E+02  0.12500000000E+03  0.80419002446E+02 0.  1.
        -24    1    1    2    0    0  0.41882141286E+02  0.15128288680E+02 -0.84704221669E+02  0.12500000000E+03  0.80419002446E+02 0. -1.
</event>
<event>
 4    1  0.1590495E-001  0.1250000E+03  0.7546771E-02  0.1126479E+00
        -11   -1    0    0    0    0  0.00000000000E+00  0.00000000000E+00  0.12500000000E+03  0.12500000000E+03  0.00000000000E+00 0.  1.
         11   -1    0    0    0    0 -0.00000000000E+00 -0.00000000000E+00 -0.12500000000E+03  0.12500000000E+03  0.00000000000E+00 0. -1.
         24    1    1    2    0    0  0.11582948115E+02 -0.17642736214E+02  0.93339987237E+02  0.12500000000E+03  0.80419002446E+02 0.  1.
        -24    1    1    2    0    0 -0.11582948115E+02  0.17642736214E+02 -0.93339987237E+02  0.12500000000E+03  0.80419002446E+02 0. -1.
</event>
<event>
 4    1  0.1590495E-001  0.1250000E+03  0.7546771E-02  0.1126479E+00
        -11   -1    0    0    0    0  0.00000000000E+00  0.00000000000E+00  0.12500000000E+03  0.12500000000E+03  0.00000000000E+00 0.  1.
         11   -1    0    0    0    0 -0.00000000000E+00 -0.00000000000E+00 -0.12500000000E+03  0.12500000000E+03  0.00000000000E+00 0. -1.
         24    1    1    2    0    0 -0.17572179525E+02 -0.22814768276E+02  0.91260555011E+02  0.12500000000E+03  0.80419002446E+02 0.  1.
        -24    1    1    2    0    0  0.17572179525E+02  0.22814768276E+02 -0.91260555011E+02  0.12500000000E+03  0.80419002446E+02 0. -1.
</event>
<event>
 4    1  0.1590495E-001  0.1250000E+03  0.7546771E-02  0.1126479E+00
        -11   -1    0    0    0    0  0.00000000000E+00  0.00000000000E+00  0.12500000000E+03  0.12500000000E+03  0.00000000000E+00 0.  1.
         11   -1    0    0    0    0 -0.00000000000E+00 -0.00000000000E+00 -0.12500000000E+03  0.12500000000E+03  0.00000000000E+00 0. -1.
         24    1    1    2    0    0  0.80886009821E+02 -0.22547661537E+01  0.51089661287E+02  0.12500000000E+03  0.80419002446E+02 0.  1.
        -24    1    1    2    0    0 -0.80886009821E+02  0.22547661537E+01 -0.51089661287E+02  0.12500000000E+03  0.80419002446E+02 0. -1.
</event>
<event>
 4    1  0.1590495E-001  0.1250000E+03  0.7546771E-02  0.1126479E+00
        -11   -1    0    0    0    0  0.00000000000E+00  0.00000000000E+00  0.12500000000E+03  0.12500000000E+03  0.00000000000E+00 0.  1.
         11   -1    0    0    0    0 -0.00000000000E+00 -0.00000000000E+00 -0.12500000000E+03  0.12500000000E+03  0.00000000000E+00 0. -1.
         24    1    1    2    0    0 -0.65010939235E+02  0.99747496615E+01  0.69511626327E+02  0.12500000000E+03  0.80419002446E+02 0.  1.
        -24    1    1    2    0    0  0.65010939235E+02 -0.99747496615E+01 -0.69511626327E+02  0.12500000000E+03  0.80419002446E+02 0. -1.
</event>
<event>
 4    1  0.1590495E-001  0.1250000E+03  0.7546771E-02  0.1126479E+00
        -11   -1    0    0    0    0  0.00000000000E+00  0.00000000000E+00  0.12500000000E+03  0.12500000000E+03  0.00000000000E+00 0.  1.
         11   -1    0    0    0    0 -0.00000000000E+00 -0.00000000000E+00 -0.12500000000E+03  0.12500000000E+03  0.00000000000E+00 0. -1.
         24    1    1    2    0    0 -0.18204861318E+02 -0.86163853075E+02  0.37445393486E+02  0.12500000000E+03  0.80419002446E+02 0.  1.
        -24    1    1    2    0    0  0.18204861318E+02  0.86163853075E+02 -0.37445393486E+02  0.12500000000E+03  0.80419002446E+02 0. -1.
</event>
<event>
 4    1  0.1590495E-001  0.1250000E+03  0.7546771E-02  0.1126479E+00
        -11   -1    0    0    0    0  0.00000000000E+00  0.00000000000E+00  0.12500000000E+03  0.12500000000E+03  0.00000000000E+00 0.  1.
         11   -1    0    0    0    0 -0.00000000000E+00 -0.00000000000E+00 -0.12500000000E+03  0.12500000000E+03  0.00000000000E+00 0. -1.
         24    1    1    2    0    0 -0.25907778457E+01 -0.51132651054E+02  0.80848771864E+02  0.12500000000E+03  0.80419002446E+02 0.  1.
        -24    1    1    2    0    0  0.25907778457E+01  0.51132651054E+02 -0.80848771864E+02  0.12500000000E+03  0.80419002446E+02 0. -1.
</event>
<event>
 4    1  0.1590495E-001  0.1250000E+03  0.7546771E-02  0.1126479E+00
        -11   -1    0    0    0    0  0.00000000000E+00  0.00000000000E+00  0.12500000000E+03  0.12500000000E+03  0.00000000000E+00 0.  1.
         11   -1    0    0    0    0 -0.00000000000E+00 -0.00000000000E+00 -0.12500000000E+03  0.12500000000E+03  0.00000000000E+00 0. -1.
         24    1    1    2    0    0 -0.19887646100E+02 -0.59301129447E+02  0.72426801838E+02  0.12500000000E+03  0.80419002446E+02 0.  1.
        -24    1    1    2    0    0  0.19887646100E+02  0.59301129447E+02 -0.72426801838E+02  0.12500000000E+03  0.80419002446E+02 0. -1.
</event>
<event>
 4    1  0.1590495E-001  0.1250000E+03  0.7546771E-02  0.1126479E+00
        -11   -1    0    0    0    0  0.00000000000E+00  0.00000000000E+00  0.12500000000E+03  0.12500000000E+03  0.00000000000E+00 0.  1.
         11   -1    0    0    0    0 -0.00000000000E+00 -0.00000000000E+00 -0.12500000000E+03  0.12500000000E+03  0.00000000000E+00 0. -1.
         24    1    1    2    0    0  0.39773043668E+02 -0.86805701850E+02  0.63764542930E+01  0.12500000000E+03  0.80419002446E+02 0. -1.
        -24    1    1    2    0    0 -0.39773043668E+02  0.86805701850E+02 -0.63764542930E+01  0.12500000000E+03  0.80419002446E+02 0.  1.
</event>
<event>
 4    1  0.1590495E-001  0.1250000E+03  0.7546771E-02  0.1126479E+00
        -11   -1    0    0    0    0  0.00000000000E+00  0.00000000000E+00  0.12500000000E+03  0.12500000000E+03  0.00000000000E+00 0.  1.
         11   -1    0    0    0    0 -0.00000000000E+00 -0.00000000000E+00 -0.12500000000E+03  0.12500000000E+03  0.00000000000E+00 0. -1.
         24    1    1    2    0    0 -0.50155911117E+02 -0.42232834075E+02  0.69703345340E+02  0.12500000000E+03  0.80419002446E+02 0.  1.
        -24    1    1    2    0    0  0.50155911117E+02  0.42232834075E+02 -0.69703345340E+02  0.12500000000E+03  0.80419002446E+02 0. -1.
</event>
<event>
 4    1  0.1590495E-001  0.1250000E+03  0.7546771E-02  0.1126479E+00
        -11   -1    0    0    0    0  0.00000000000E+00  0.00000000000E+00  0.12500000000E+03  0.12500000000E+03  0.00000000000E+00 0.  1.
         11   -1    0    0    0    0 -0.00000000000E+00 -0.00000000000E+00 -0.12500000000E+03  0.12500000000E+03  0.00000000000E+00 0. -1.
         24    1    1    2    0    0  0.19944933676E+02 -0.39072244378E+02  0.85049064578E+02  0.12500000000E+03  0.80419002446E+02 0.  1.
        -24    1    1    2    0    0 -0.19944933676E+02  0.39072244378E+02 -0.85049064578E+02  0.12500000000E+03  0.80419002446E+02 0. -1.
</event>
<event>
 4    1  0.1590495E-001  0.1250000E+03  0.7546771E-02  0.1126479E+00
        -11   -1    0    0    0    0  0.00000000000E+00  0.00000000000E+00  0.12500000000E+03  0.12500000000E+03  0.00000000000E+00 0.  1.
         11   -1    0    0    0    0 -0.00000000000E+00 -0.00000000000E+00 -0.12500000000E+03  0.12500000000E+03  0.00000000000E+00 0. -1.
         24    1    1    2    0    0 -0.26901514265E+02  0.97196774122E+01  0.91321522364E+02  0.12500000000E+03  0.80419002446E+02 0.  1.
        -24    1    1    2    0    0  0.26901514265E+02 -0.97196774122E+01 -0.91321522364E+02  0.12500000000E+03  0.80419002446E+02 0. -1.
</event>
<event>
 4    1  0.1590495E-001  0.1250000E+03  0.7546771E-02  0.1126479E+00
        -11   -1    0    0    0    0  0.00000000000E+00  0.00000000000E+00  0.12500000000E+03  0.12500000000E+03  0.00000000000E+00 0.  1.
         11   -1    0    0    0    0 -0.00000000000E+00 -0.00000000000E+00 -0.12500000000E+03  0.12500000000E+03  0.00000000000E+00 0. -1.
         24    1    1    2    0    0 -0.10492148203E+02 -0.37248228666E+02  0.87522958891E+02  0.12500000000E+03  0.80419002446E+02 0.  1.
        -24    1    1    2    0    0  0.10492148203E+02  0.37248228666E+02 -0.87522958891E+02  0.12500000000E+03  0.80419002446E+02 0. -1.
</event>
<event>
 4    1  0.1590495E-001  0.1250000E+03  0.7546771E-02  0.1126479E+00
        -11   -1    0    0    0    0  0.00000000000E+00  0.00000000000E+00  0.12500000000E+03  0.12500000000E+03  0.00000000000E+00 0.  1.
         11   -1    0    0    0    0 -0.00000000000E+00 -0.00000000000E+00 -0.12500000000E+03  0.12500000000E+03  0.00000000000E+00 0. -1.
         24    1    1    2    0    0 -0.15660510910E+02  0.60816915856E+02  0.72206891565E+02  0.12500000000E+03  0.80419002446E+02 0.  1.
        -24    1    1    2    0    0  0.15660510910E+02 -0.60816915856E+02 -0.72206891565E+02  0.12500000000E+03  0.80419002446E+02 0. -1.
</event>
<event>
 4    1  0.1590495E-001  0.1250000E+03  0.7546771E-02  0.1126479E+00
        -11   -1    0    0    0    0  0.00000000000E+00  0.00000000000E+00  0.12500000000E+03  0.12500000000E+03  0.00000000000E+00 0.  1.
         11   -1    0    0    0    0 -0.00000000000E+00 -0.00000000000E+00 -0.12500000000E+03  0.12500000000E+03  0.00000000000E+00 0. -1.
         24    1    1    2    0    0  0.33073304135E+02  0.64120574557E+01  0.89570230090E+02  0.12500000000E+03  0.80419002446E+02 0.  1.
        -24    1    1    2    0    0 -0.33073304135E+02 -0.64120574557E+01 -0.89570230090E+02  0.12500000000E+03  0.80419002446E+02 0. -1.
</event>
<event>
 4    1  0.1590495E-001  0.1250000E+03  0.7546771E-02  0.1126479E+00
        -11   -1    0    0    0    0  0.00000000000E+00  0.00000000000E+00  0.12500000000E+03  0.12500000000E+03  0.00000000000E+00 0.  1.
         11   -1    0    0    0    0 -0.00000000000E+00 -0.00000000000E+00 -0.12500000000E+03  0.12500000000E+03  0.00000000000E+00 0. -1.
         24    1    1    2    0    0  0.49599457532E+02 -0.29312356671E+02  0.76409839710E+02  0.12500000000E+03  0.80419002446E+02 0.  1.
        -24    1    1    2    0    0 -0.49599457532E+02  0.29312356671E+02 -0.76409839710E+02  0.12500000000E+03  0.80419002446E+02 0. -1.
</event>
<event>
 4    1  0.1590495E-001  0.1250000E+03  0.7546771E-02  0.1126479E+00
        -11   -1    0    0    0    0  0.00000000000E+00  0.00000000000E+00  0.12500000000E+03  0.12500000000E+03  0.00000000000E+00 0.  1.
         11   -1    0    0    0    0 -0.00000000000E+00 -0.00000000000E+00 -0.12500000000E+03  0.12500000000E+03  0.00000000000E+00 0. -1.
         24    1    1    2    0    0  0.19386266147E+01  0.39437473451E+02  0.87170588275E+02  0.12500000000E+03  0.80419002446E+02 0.  1.
        -24    1    1    2    0    0 -0.19386266147E+01 -0.39437473451E+02 -0.87170588275E+02  0.12500000000E+03  0.80419002446E+02 0. -1.
</event>
<event>
 4    1  0.1590495E-001  0.1250000E+03  0.7546771E-02  0.1126479E+00
        -11   -1    0    0    0    0  0.00000000000E+00  0.00000000000E+00  0.12500000000E+03  0.12500000000E+03  0.00000000000E+00 0.  1.
         11   -1    0    0    0    0 -0.00000000000E+00 -0.00000000000E+00 -0.12500000000E+03  0.12500000000E+03  0.00000000000E+00 0. -1.
         24    1    1    2    0    0 -0.42398396734E+02 -0.60250558155E+02  0.61073973524E+02  0.12500000000E+03  0.80419002446E+02 0.  1.
        -24    1    1    2    0    0  0.42398396734E+02  0.60250558155E+02 -0.61073973524E+02  0.12500000000E+03  0.80419002446E+02 0. -1.
</event>
<event>
 4    1  0.1590495E-001  0.1250000E+03  0.7546771E-02  0.1126479E+00
        -11   -1    0    0    0    0  0.00000000000E+00  0.00000000000E+00  0.12500000000E+03  0.12500000000E+03  0.00000000000E+00 0.  1.
         11   -1    0    0    0    0 -0.00000000000E+00 -0.00000000000E+00 -0.12500000000E+03  0.12500000000E+03  0.00000000000E+00 0. -1.
         24    1    1    2    0    0 -0.18531452574E+02 -0.92524008138E+02  0.15927248012E+02  0.12500000000E+03  0.80419002446E+02 0.  0.
        -24    1    1    2    0    0  0.18531452574E+02  0.92524008138E+02 -0.15927248012E+02  0.12500000000E+03  0.80419002446E+02 0. -1.
</event>
<event>
 4    1  0.1590495E-001  0.1250000E+03  0.7546771E-02  0.1126479E+00
        -11   -1    0    0    0    0  0.00000000000E+00  0.00000000000E+00  0.12500000000E+03  0.12500000000E+03  0.00000000000E+00 0.  1.
         11   -1    0    0    0    0 -0.00000000000E+00 -0.00000000000E+00 -0.12500000000E+03  0.12500000000E+03  0.00000000000E+00 0. -1.
         24    1    1    2    0    0 -0.25337887978E+02 -0.33034086349E+02  0.86165681205E+02  0.12500000000E+03  0.80419002446E+02 0.  1.
        -24    1    1    2    0    0  0.25337887978E+02  0.33034086349E+02 -0.86165681205E+02  0.12500000000E+03  0.80419002446E+02 0. -1.
</event>
<event>
 4    1  0.1590495E-001  0.1250000E+03  0.7546771E-02  0.1126479E+00
        -11   -1    0    0    0    0  0.00000000000E+00  0.00000000000E+00  0.12500000000E+03  0.12500000000E+03  0.00000000000E+00 0.  1.
         11   -1    0    0    0    0 -0.00000000000E+00 -0.00000000000E+00 -0.12500000000E+03  0.12500000000E+03  0.00000000000E+00 0. -1.
         24    1    1    2    0    0 -0.54804375340E+02 -0.65667861860E+02  0.42918485621E+02  0.12500000000E+03  0.80419002446E+02 0.  1.
        -24    1    1    2    0    0  0.54804375340E+02  0.65667861860E+02 -0.42918485621E+02  0.12500000000E+03  0.80419002446E+02 0. -1.
</event>
<event>
 4    1  0.1590495E-001  0.1250000E+03  0.7546771E-02  0.1126479E+00
        -11   -1    0    0    0    0  0.00000000000E+00  0.00000000000E+00  0.12500000000E+03  0.12500000000E+03  0.00000000000E+00 0.  1.
         11   -1    0    0    0    0 -0.00000000000E+00 -0.00000000000E+00 -0.12500000000E+03  0.12500000000E+03  0.00000000000E+00 0. -1.
         24    1    1    2    0    0  0.41351587920E+02 -0.15009648200E+02  0.84985532198E+02  0.12500000000E+03  0.80419002446E+02 0.  1.
        -24    1    1    2    0    0 -0.41351587920E+02  0.15009648200E+02 -0.84985532198E+02  0.12500000000E+03  0.80419002446E+02 0. -1.
</event>
<event>
 4    1  0.1590495E-001  0.1250000E+03  0.7546771E-02  0.1126479E+00
        -11   -1    0    0    0    0  0.00000000000E+00  0.00000000000E+00  0.12500000000E+03  0.12500000000E+03  0.00000000000E+00 0.  1.
         11   -1    0    0    0    0 -0.00000000000E+00 -0.00000000000E+00 -0.12500000000E+03  0.12500000000E+03  0.00000000000E+00 0. -1.
         24    1    1    2    0    0 -0.18633200656E+02 -0.45190923847E+02  0.82270093477E+02  0.12500000000E+03  0.80419002446E+02 0.  1.
        -24    1    1    2    0    0  0.18633200656E+02  0.45190923847E+02 -0.82270093477E+02  0.12500000000E+03  0.80419002446E+02 0. -1.
</event>
<event>
 4    1  0.1590495E-001  0.1250000E+03  0.7546771E-02  0.1126479E+00
        -11   -1    0    0    0    0  0.00000000000E+00  0.00000000000E+00  0.12500000000E+03  0.12500000000E+03  0.00000000000E+00 0.  1.
         11   -1    0    0    0    0 -0.00000000000E+00 -0.00000000000E+00 -0.12500000000E+03  0.12500000000E+03  0.00000000000E+00 0. -1.
         24    1    1    2    0    0 -0.76606688899E+02 -0.32170930653E+02  0.47478737162E+02  0.12500000000E+03  0.80419002446E+02 0.  1.
        -24    1    1    2    0    0  0.76606688899E+02  0.32170930653E+02 -0.47478737162E+02  0.12500000000E+03  0.80419002446E+02 0. -1.
</event>
<event>
 4    1  0.1590495E-001  0.1250000E+03  0.7546771E-02  0.1126479E+00
        -11   -1    0    0    0    0  0.00000000000E+00  0.00000000000E+00  0.12500000000E+03  0.12500000000E+03  0.00000000000E+00 0.  1.
         11   -1    0    0    0    0 -0.00000000000E+00 -0.00000000000E+00 -0.12500000000E+03  0.12500000000E+03  0.00000000000E+00 0. -1.
         24    1    1    2    0    0 -0.10331169324E+02  0.41494622602E+02 -0.85611023129E+02  0.12500000000E+03  0.80419002446E+02 0. -1.
        -24    1    1    2    0    0  0.10331169324E+02 -0.41494622602E+02  0.85611023129E+02  0.12500000000E+03  0.80419002446E+02 0.  0.
</event>
<event>
 4    1  0.1590495E-001  0.1250000E+03  0.7546771E-02  0.1126479E+00
        -11   -1    0    0    0    0  0.00000000000E+00  0.00000000000E+00  0.12500000000E+03  0.12500000000E+03  0.00000000000E+00 0.  1.
         11   -1    0    0    0    0 -0.00000000000E+00 -0.00000000000E+00 -0.12500000000E+03  0.12500000000E+03  0.00000000000E+00 0. -1.
         24    1    1    2    0    0 -0.56759473158E+02  0.13526220214E+02  0.75849770067E+02  0.12500000000E+03  0.80419002446E+02 0.  1.
        -24    1    1    2    0    0  0.56759473158E+02 -0.13526220214E+02 -0.75849770067E+02  0.12500000000E+03  0.80419002446E+02 0. -1.
</event>
<event>
 4    1  0.1590495E-001  0.1250000E+03  0.7546771E-02  0.1126479E+00
        -11   -1    0    0    0    0  0.00000000000E+00  0.00000000000E+00  0.12500000000E+03  0.12500000000E+03  0.00000000000E+00 0.  1.
         11   -1    0    0    0    0 -0.00000000000E+00 -0.00000000000E+00 -0.12500000000E+03  0.12500000000E+03  0.00000000000E+00 0. -1.
         24    1    1    2    0    0  0.94733203976E+02 -0.85490593942E+01  0.10503223010E+02  0.12500000000E+03  0.80419002446E+02 0.  1.
        -24    1    1    2    0    0 -0.94733203976E+02  0.85490593942E+01 -0.10503223010E+02  0.12500000000E+03  0.80419002446E+02 0. -1.
</event>
<event>
 4    1  0.1590495E-001  0.1250000E+03  0.7546771E-02  0.1126479E+00
        -11   -1    0    0    0    0  0.00000000000E+00  0.00000000000E+00  0.12500000000E+03  0.12500000000E+03  0.00000000000E+00 0.  1.
         11   -1    0    0    0    0 -0.00000000000E+00 -0.00000000000E+00 -0.12500000000E+03  0.12500000000E+03  0.00000000000E+00 0. -1.
         24    1    1    2    0    0 -0.64287909213E+02 -0.30713407436E+02  0.63886895200E+02  0.12500000000E+03  0.80419002446E+02 0.  1.
        -24    1    1    2    0    0  0.64287909213E+02  0.30713407436E+02 -0.63886895200E+02  0.12500000000E+03  0.80419002446E+02 0. -1.
</event>
<event>
 4    1  0.1590495E-001  0.1250000E+03  0.7546771E-02  0.1126479E+00
        -11   -1    0    0    0    0  0.00000000000E+00  0.00000000000E+00  0.12500000000E+03  0.12500000000E+03  0.00000000000E+00 0.  1.
         11   -1    0    0    0    0 -0.00000000000E+00 -0.00000000000E+00 -0.12500000000E+03  0.12500000000E+03  0.00000000000E+00 0. -1.
         24    1    1    2    0    0  0.90881576820E+01 -0.34804172955E+02  0.88678401996E+02  0.12500000000E+03  0.80419002446E+02 0.  1.
        -24    1    1    2    0    0 -0.90881576820E+01  0.34804172955E+02 -0.88678401996E+02  0.12500000000E+03  0.80419002446E+02 0. -1.
</event>
<event>
 4    1  0.1590495E-001  0.1250000E+03  0.7546771E-02  0.1126479E+00
        -11   -1    0    0    0    0  0.00000000000E+00  0.00000000000E+00  0.12500000000E+03  0.12500000000E+03  0.00000000000E+00 0.  1.
         11   -1    0    0    0    0 -0.00000000000E+00 -0.00000000000E+00 -0.12500000000E+03  0.12500000000E+03  0.00000000000E+00 0. -1.
         24    1    1    2    0    0  0.19032846256E+02 -0.39244867692E+02  0.85178490060E+02  0.12500000000E+03  0.80419002446E+02 0.  1.
        -24    1    1    2    0    0 -0.19032846256E+02  0.39244867692E+02 -0.85178490060E+02  0.12500000000E+03  0.80419002446E+02 0. -1.
</event>
<event>
 4    1  0.1590495E-001  0.1250000E+03  0.7546771E-02  0.1126479E+00
        -11   -1    0    0    0    0  0.00000000000E+00  0.00000000000E+00  0.12500000000E+03  0.12500000000E+03  0.00000000000E+00 0.  1.
         11   -1    0    0    0    0 -0.00000000000E+00 -0.00000000000E+00 -0.12500000000E+03  0.12500000000E+03  0.00000000000E+00 0. -1.
         24    1    1    2    0    0  0.24218322369E+02 -0.12508020551E+02  0.91732253483E+02  0.12500000000E+03  0.80419002446E+02 0.  0.
        -24    1    1    2    0    0 -0.24218322369E+02  0.12508020551E+02 -0.91732253483E+02  0.12500000000E+03  0.80419002446E+02 0. -1.
</event>
<event>
 4    1  0.1590495E-001  0.1250000E+03  0.7546771E-02  0.1126479E+00
        -11   -1    0    0    0    0  0.00000000000E+00  0.00000000000E+00  0.12500000000E+03  0.12500000000E+03  0.00000000000E+00 0.  1.
         11   -1    0    0    0    0 -0.00000000000E+00 -0.00000000000E+00 -0.12500000000E+03  0.12500000000E+03  0.00000000000E+00 0. -1.
         24    1    1    2    0    0 -0.25420982515E+02  0.79734132261E+02  0.46411483990E+02  0.12500000000E+03  0.80419002446E+02 0.  0.
        -24    1    1    2    0    0  0.25420982515E+02 -0.79734132261E+02 -0.46411483990E+02  0.12500000000E+03  0.80419002446E+02 0. -1.
</event>
<event>
 4    1  0.1590495E-001  0.1250000E+03  0.7546771E-02  0.1126479E+00
        -11   -1    0    0    0    0  0.00000000000E+00  0.00000000000E+00  0.12500000000E+03  0.12500000000E+03  0.00000000000E+00 0.  1.
         11   -1    0    0    0    0 -0.00000000000E+00 -0.00000000000E+00 -0.12500000000E+03  0.12500000000E+03  0.00000000000E+00 0. -1.
         24    1    1    2    0    0 -0.61522936155E+02 -0.54449075515E+02  0.49071484063E+02  0.12500000000E+03  0.80419002446E+02 0.  0.
        -24    1    1    2    0    0  0.61522936155E+02  0.54449075515E+02 -0.49071484063E+02  0.12500000000E+03  0.80419002446E+02 0. -1.
</event>
<event>
 4    1  0.1590495E-001  0.1250000E+03  0.7546771E-02  0.1126479E+00
        -11   -1    0    0    0    0  0.00000000000E+00  0.00000000000E+00  0.12500000000E+03  0.12500000000E+03  0.00000000000E+00 0.  1.
         11   -1    0    0    0    0 -0.00000000000E+00 -0.00000000000E+00 -0.12500000000E+03  0.12500000000E+03  0.00000000000E+00 0. -1.
         24    1    1    2    0    0  0.27353499132E+02  0.15453791072E+02  0.90392203604E+02  0.12500000000E+03  0.80419002446E+02 0. -1.
        -24    1    1    2    0    0 -0.27353499132E+02 -0.15453791072E+02 -0.90392203604E+02  0.12500000000E+03  0.80419002446E+02 0.  0.
</event>
<event>
 4    1  0.1590495E-001  0.1250000E+03  0.7546771E-02  0.1126479E+00
        -11   -1    0    0    0    0  0.00000000000E+00  0.00000000000E+00  0.12500000000E+03  0.12500000000E+03  0.00000000000E+00 0.  1.
         11   -1    0    0    0    0 -0.00000000000E+00 -0.00000000000E+00 -0.12500000000E+03  0.12500000000E+03  0.00000000000E+00 0. -1.
         24    1    1    2    0    0  0.12154933645E+02 -0.13725027342E+02  0.93923720423E+02  0.12500000000E+03  0.80419002446E+02 0.  1.
        -24    1    1    2    0    0 -0.12154933645E+02  0.13725027342E+02 -0.93923720423E+02  0.12500000000E+03  0.80419002446E+02 0.  0.
</event>
<event>
 4    1  0.1590495E-001  0.1250000E+03  0.7546771E-02  0.1126479E+00
        -11   -1    0    0    0    0  0.00000000000E+00  0.00000000000E+00  0.12500000000E+03  0.12500000000E+03  0.00000000000E+00 0.  1.
         11   -1    0    0    0    0 -0.00000000000E+00 -0.00000000000E+00 -0.12500000000E+03  0.12500000000E+03  0.00000000000E+00 0. -1.
         24    1    1    2    0    0  0.39173950129E+02 -0.93094880165E+01  0.86813127520E+02  0.12500000000E+03  0.80419002446E+02 0.  0.
        -24    1    1    2    0    0 -0.39173950129E+02  0.93094880165E+01 -0.86813127520E+02  0.12500000000E+03  0.80419002446E+02 0.  0.
</event>
<event>
 4    1  0.1590495E-001  0.1250000E+03  0.7546771E-02  0.1126479E+00
        -11   -1    0    0    0    0  0.00000000000E+00  0.00000000000E+00  0.12500000000E+03  0.12500000000E+03  0.00000000000E+00 0.  1.
         11   -1    0    0    0    0 -0.00000000000E+00 -0.00000000000E+00 -0.12500000000E+03  0.12500000000E+03  0.00000000000E+00 0. -1.
         24    1    1    2    0    0  0.58594693197E+02  0.52989121710E+02  0.54005545597E+02  0.12500000000E+03  0.80419002446E+02 0.  1.
        -24    1    1    2    0    0 -0.58594693197E+02 -0.52989121710E+02 -0.54005545597E+02  0.12500000000E+03  0.80419002446E+02 0. -1.
</event>
<event>
 4    1  0.1590495E-001  0.1250000E+03  0.7546771E-02  0.1126479E+00
        -11   -1    0    0    0    0  0.00000000000E+00  0.00000000000E+00  0.12500000000E+03  0.12500000000E+03  0.00000000000E+00 0.  1.
         11   -1    0    0    0    0 -0.00000000000E+00 -0.00000000000E+00 -0.12500000000E+03  0.12500000000E+03  0.00000000000E+00 0. -1.
         24    1    1    2    0    0  0.79603384001E+02  0.46948895819E+02  0.24837199574E+02  0.12500000000E+03  0.80419002446E+02 0.  1.
        -24    1    1    2    0    0 -0.79603384001E+02 -0.46948895819E+02 -0.24837199574E+02  0.12500000000E+03  0.80419002446E+02 0. -1.
</event>
<event>
 4    1  0.1590495E-001  0.1250000E+03  0.7546771E-02  0.1126479E+00
        -11   -1    0    0    0    0  0.00000000000E+00  0.00000000000E+00  0.12500000000E+03  0.12500000000E+03  0.00000000000E+00 0.  1.
         11   -1    0    0    0    0 -0.00000000000E+00 -0.00000000000E+00 -0.12500000000E+03  0.12500000000E+03  0.00000000000E+00 0. -1.
         24    1    1    2    0    0 -0.82368811302E+01 -0.73087493270E+02  0.61222186848E+02  0.12500000000E+03  0.80419002446E+02 0.  1.
        -24    1    1    2    0    0  0.82368811302E+01  0.73087493270E+02 -0.61222186848E+02  0.12500000000E+03  0.80419002446E+02 0. -1.
</event>
<event>
 4    1  0.1590495E-001  0.1250000E+03  0.7546771E-02  0.1126479E+00
        -11   -1    0    0    0    0  0.00000000000E+00  0.00000000000E+00  0.12500000000E+03  0.12500000000E+03  0.00000000000E+00 0.  1.
         11   -1    0    0    0    0 -0.00000000000E+00 -0.00000000000E+00 -0.12500000000E+03  0.12500000000E+03  0.00000000000E+00 0. -1.
         24    1    1    2    0    0  0.91800487871E+02 -0.11894926771E+02  0.24268605014E+02  0.12500000000E+03  0.80419002446E+02 0.  1.
        -24    1    1    2    0    0 -0.91800487871E+02  0.11894926771E+02 -0.24268605014E+02  0.12500000000E+03  0.80419002446E+02 0. -1.
</event>
<event>
 4    1  0.1590495E-001  0.1250000E+03  0.7546771E-02  0.1126479E+00
        -11   -1    0    0    0    0  0.00000000000E+00  0.00000000000E+00  0.12500000000E+03  0.12500000000E+03  0.00000000000E+00 0.  1.
         11   -1    0    0    0    0 -0.00000000000E+00 -0.00000000000E+00 -0.12500000000E+03  0.12500000000E+03  0.00000000000E+00 0. -1.
         24    1    1    2    0    0  0.53898344031E+01  0.23725096389E+01  0.95514946101E+02  0.12500000000E+03  0.80419002446E+02 0.  1.
        -24    1    1    2    0    0 -0.53898344031E+01 -0.23725096389E+01 -0.95514946101E+02  0.12500000000E+03  0.80419002446E+02 0.  0.
</event>
<event>
 4    1  0.1590495E-001  0.1250000E+03  0.7546771E-02  0.1126479E+00
        -11   -1    0    0    0    0  0.00000000000E+00  0.00000000000E+00  0.12500000000E+03  0.12500000000E+03  0.00000000000E+00 0.  1.
         11   -1    0    0    0    0 -0.00000000000E+00 -0.00000000000E+00 -0.12500000000E+03  0.12500000000E+03  0.00000000000E+00 0. -1.
         24    1    1    2    0    0 -0.57440219316E+02 -0.62540165737E+02  0.44126329104E+02  0.12500000000E+03  0.80419002446E+02 0.  1.
        -24    1    1    2    0    0  0.57440219316E+02  0.62540165737E+02 -0.44126329104E+02  0.12500000000E+03  0.80419002446E+02 0. -1.
</event>
<event>
 4    1  0.1590495E-001  0.1250000E+03  0.7546771E-02  0.1126479E+00
        -11   -1    0    0    0    0  0.00000000000E+00  0.00000000000E+00  0.12500000000E+03  0.12500000000E+03  0.00000000000E+00 0.  1.
         11   -1    0    0    0    0 -0.00000000000E+00 -0.00000000000E+00 -0.12500000000E+03  0.12500000000E+03  0.00000000000E+00 0. -1.
         24    1    1    2    0    0 -0.44768262831E+02 -0.35515756711E+02  0.76760782396E+02  0.12500000000E+03  0.80419002446E+02 0.  1.
        -24    1    1    2    0    0  0.44768262831E+02  0.35515756711E+02 -0.76760782396E+02  0.12500000000E+03  0.80419002446E+02 0. -1.
</event>
<event>
 4    1  0.1590495E-001  0.1250000E+03  0.7546771E-02  0.1126479E+00
        -11   -1    0    0    0    0  0.00000000000E+00  0.00000000000E+00  0.12500000000E+03  0.12500000000E+03  0.00000000000E+00 0.  1.
         11   -1    0    0    0    0 -0.00000000000E+00 -0.00000000000E+00 -0.12500000000E+03  0.12500000000E+03  0.00000000000E+00 0. -1.
         24    1    1    2    0    0  0.81266990314E+02 -0.11611660632E+02  0.49179565556E+02  0.12500000000E+03  0.80419002446E+02 0.  1.
        -24    1    1    2    0    0 -0.81266990314E+02  0.11611660632E+02 -0.49179565556E+02  0.12500000000E+03  0.80419002446E+02 0.  0.
</event>
<event>
 4    1  0.1590495E-001  0.1250000E+03  0.7546771E-02  0.1126479E+00
        -11   -1    0    0    0    0  0.00000000000E+00  0.00000000000E+00  0.12500000000E+03  0.12500000000E+03  0.00000000000E+00 0.  1.
         11   -1    0    0    0    0 -0.00000000000E+00 -0.00000000000E+00 -0.12500000000E+03  0.12500000000E+03  0.00000000000E+00 0. -1.
         24    1    1    2    0    0  0.65929377692E+02  0.47284645008E+02  0.50747054586E+02  0.12500000000E+03  0.80419002446E+02 0.  1.
        -24    1    1    2    0    0 -0.65929377692E+02 -0.47284645008E+02 -0.50747054586E+02  0.12500000000E+03  0.80419002446E+02 0. -1.
</event>
<event>
 4    1  0.1590495E-001  0.1250000E+03  0.7546771E-02  0.1126479E+00
        -11   -1    0    0    0    0  0.00000000000E+00  0.00000000000E+00  0.12500000000E+03  0.12500000000E+03  0.00000000000E+00 0.  1.
         11   -1    0    0    0    0 -0.00000000000E+00 -0.00000000000E+00 -0.12500000000E+03  0.12500000000E+03  0.00000000000E+00 0. -1.
         24    1    1    2    0    0 -0.39502607076E+02 -0.29717408639E+01  0.87111978717E+02  0.12500000000E+03  0.80419002446E+02 0.  0.
        -24    1    1    2    0    0  0.39502607076E+02  0.29717408639E+01 -0.87111978717E+02  0.12500000000E+03  0.80419002446E+02 0.  0.
</event>
<event>
 4    1  0.1590495E-001  0.1250000E+03  0.7546771E-02  0.1126479E+00
        -11   -1    0    0    0    0  0.00000000000E+00  0.00000000000E+00  0.12500000000E+03  0.12500000000E+03  0.00000000000E+00 0.  1.
         11   -1    0    0    0    0 -0.00000000000E+00 -0.00000000000E+00 -0.12500000000E+03  0.12500000000E+03  0.00000000000E+00 0. -1.
         24    1    1    2    0    0  0.60224872012E+02 -0.10019152282E+02  0.73691013185E+02  0.12500000000E+03  0.80419002446E+02 0.  1.
        -24    1    1    2    0    0 -0.60224872012E+02  0.10019152282E+02 -0.73691013185E+02  0.12500000000E+03  0.80419002446E+02 0. -1.
</event>
<event>
 4    1  0.1590495E-001  0.1250000E+03  0.7546771E-02  0.1126479E+00
        -11   -1    0    0    0    0  0.00000000000E+00  0.00000000000E+00  0.12500000000E+03  0.12500000000E+03  0.00000000000E+00 0.  1.
         11   -1    0    0    0    0 -0.00000000000E+00 -0.00000000000E+00 -0.12500000000E+03  0.12500000000E+03  0.00000000000E+00 0. -1.
         24    1    1    2    0    0  0.50993630078E+02 -0.28654635285E+02  0.75738666570E+02  0.12500000000E+03  0.80419002446E+02 0.  1.
        -24    1    1    2    0    0 -0.50993630078E+02  0.28654635285E+02 -0.75738666570E+02  0.12500000000E+03  0.80419002446E+02 0. -1.
</event>
<event>
 4    1  0.1590495E-001  0.1250000E+03  0.7546771E-02  0.1126479E+00
        -11   -1    0    0    0    0  0.00000000000E+00  0.00000000000E+00  0.12500000000E+03  0.12500000000E+03  0.00000000000E+00 0.  1.
         11   -1    0    0    0    0 -0.00000000000E+00 -0.00000000000E+00 -0.12500000000E+03  0.12500000000E+03  0.00000000000E+00 0. -1.
         24    1    1    2    0    0 -0.32274829463E+02 -0.14456841008E+02  0.88921983653E+02  0.12500000000E+03  0.80419002446E+02 0.  1.
        -24    1    1    2    0    0  0.32274829463E+02  0.14456841008E+02 -0.88921983653E+02  0.12500000000E+03  0.80419002446E+02 0. -1.
</event>
<event>
 4    1  0.1590495E-001  0.1250000E+03  0.7546771E-02  0.1126479E+00
        -11   -1    0    0    0    0  0.00000000000E+00  0.00000000000E+00  0.12500000000E+03  0.12500000000E+03  0.00000000000E+00 0.  1.
         11   -1    0    0    0    0 -0.00000000000E+00 -0.00000000000E+00 -0.12500000000E+03  0.12500000000E+03  0.00000000000E+00 0. -1.
         24    1    1    2    0    0  0.75928592806E+01 -0.13086757573E+02  0.94492694478E+02  0.12500000000E+03  0.80419002446E+02 0.  1.
        -24    1    1    2    0    0 -0.75928592806E+01  0.13086757573E+02 -0.94492694478E+02  0.12500000000E+03  0.80419002446E+02 0. -1.
</event>
<event>
 4    1  0.1590495E-001  0.1250000E+03  0.7546771E-02  0.1126479E+00
        -11   -1    0    0    0    0  0.00000000000E+00  0.00000000000E+00  0.12500000000E+03  0.12500000000E+03  0.00000000000E+00 0.  1.
         11   -1    0    0    0    0 -0.00000000000E+00 -0.00000000000E+00 -0.12500000000E+03  0.12500000000E+03  0.00000000000E+00 0. -1.
         24    1    1    2    0    0  0.30499693129E+02  0.49762228626E+02  0.75837150308E+02  0.12500000000E+03  0.80419002446E+02 0.  1.
        -24    1    1    2    0    0 -0.30499693129E+02 -0.49762228626E+02 -0.75837150308E+02  0.12500000000E+03  0.80419002446E+02 0. -1.
</event>
<event>
 4    1  0.1590495E-001  0.1250000E+03  0.7546771E-02  0.1126479E+00
        -11   -1    0    0    0    0  0.00000000000E+00  0.00000000000E+00  0.12500000000E+03  0.12500000000E+03  0.00000000000E+00 0.  1.
         11   -1    0    0    0    0 -0.00000000000E+00 -0.00000000000E+00 -0.12500000000E+03  0.12500000000E+03  0.00000000000E+00 0. -1.
         24    1    1    2    0    0 -0.84488787506E+02 -0.39634793180E+02  0.21178101922E+02  0.12500000000E+03  0.80419002446E+02 0.  1.
        -24    1    1    2    0    0  0.84488787506E+02  0.39634793180E+02 -0.21178101922E+02  0.12500000000E+03  0.80419002446E+02 0. -1.
</event>
<event>
 4    1  0.1590495E-001  0.1250000E+03  0.7546771E-02  0.1126479E+00
        -11   -1    0    0    0    0  0.00000000000E+00  0.00000000000E+00  0.12500000000E+03  0.12500000000E+03  0.00000000000E+00 0.  1.
         11   -1    0    0    0    0 -0.00000000000E+00 -0.00000000000E+00 -0.12500000000E+03  0.12500000000E+03  0.00000000000E+00 0. -1.
         24    1    1    2    0    0  0.89704371379E+02 -0.31294446993E+02  0.11470282848E+02  0.12500000000E+03  0.80419002446E+02 0.  0.
        -24    1    1    2    0    0 -0.89704371379E+02  0.31294446993E+02 -0.11470282848E+02  0.12500000000E+03  0.80419002446E+02 0. -1.
</event>
<event>
 4    1  0.1590495E-001  0.1250000E+03  0.7546771E-02  0.1126479E+00
        -11   -1    0    0    0    0  0.00000000000E+00  0.00000000000E+00  0.12500000000E+03  0.12500000000E+03  0.00000000000E+00 0.  1.
         11   -1    0    0    0    0 -0.00000000000E+00 -0.00000000000E+00 -0.12500000000E+03  0.12500000000E+03  0.00000000000E+00 0. -1.
         24    1    1    2    0    0 -0.46693620909E+02  0.43385257639E+01  0.83418625056E+02  0.12500000000E+03  0.80419002446E+02 0.  0.
        -24    1    1    2    0    0  0.46693620909E+02 -0.43385257639E+01 -0.83418625056E+02  0.12500000000E+03  0.80419002446E+02 0.  0.
</event>
<event>
 4    1  0.1590495E-001  0.1250000E+03  0.7546771E-02  0.1126479E+00
        -11   -1    0    0    0    0  0.00000000000E+00  0.00000000000E+00  0.12500000000E+03  0.12500000000E+03  0.00000000000E+00 0.  1.
         11   -1    0    0    0    0 -0.00000000000E+00 -0.00000000000E+00 -0.12500000000E+03  0.12500000000E+03  0.00000000000E+00 0. -1.
         24    1    1    2    0    0 -0.31982626583E+02  0.41464441562E+02  0.80097413993E+02  0.12500000000E+03  0.80419002446E+02 0.  1.
        -24    1    1    2    0    0  0.31982626583E+02 -0.41464441562E+02 -0.80097413993E+02  0.12500000000E+03  0.80419002446E+02 0. -1.
</event>
<event>
 4    1  0.1590495E-001  0.1250000E+03  0.7546771E-02  0.1126479E+00
        -11   -1    0    0    0    0  0.00000000000E+00  0.00000000000E+00  0.12500000000E+03  0.12500000000E+03  0.00000000000E+00 0.  1.
         11   -1    0    0    0    0 -0.00000000000E+00 -0.00000000000E+00 -0.12500000000E+03  0.12500000000E+03  0.00000000000E+00 0. -1.
         24    1    1    2    0    0 -0.17922578845E+02  0.37809656879E+02  0.86063901026E+02  0.12500000000E+03  0.80419002446E+02 0.  1.
        -24    1    1    2    0    0  0.17922578845E+02 -0.37809656879E+02 -0.86063901026E+02  0.12500000000E+03  0.80419002446E+02 0. -1.
</event>
<event>
 4    1  0.1590495E-001  0.1250000E+03  0.7546771E-02  0.1126479E+00
        -11   -1    0    0    0    0  0.00000000000E+00  0.00000000000E+00  0.12500000000E+03  0.12500000000E+03  0.00000000000E+00 0.  1.
         11   -1    0    0    0    0 -0.00000000000E+00 -0.00000000000E+00 -0.12500000000E+03  0.12500000000E+03  0.00000000000E+00 0. -1.
         24    1    1    2    0    0 -0.20210321301E+02  0.42634642113E+02  0.83256316580E+02  0.12500000000E+03  0.80419002446E+02 0.  1.
        -24    1    1    2    0    0  0.20210321301E+02 -0.42634642113E+02 -0.83256316580E+02  0.12500000000E+03  0.80419002446E+02 0. -1.
</event>
<event>
 4    1  0.1590495E-001  0.1250000E+03  0.7546771E-02  0.1126479E+00
        -11   -1    0    0    0    0  0.00000000000E+00  0.00000000000E+00  0.12500000000E+03  0.12500000000E+03  0.00000000000E+00 0.  1.
         11   -1    0    0    0    0 -0.00000000000E+00 -0.00000000000E+00 -0.12500000000E+03  0.12500000000E+03  0.00000000000E+00 0. -1.
         24    1    1    2    0    0 -0.13473000441E+02  0.53853734295E+02  0.77948942310E+02  0.12500000000E+03  0.80419002446E+02 0.  1.
        -24    1    1    2    0    0  0.13473000441E+02 -0.53853734295E+02 -0.77948942310E+02  0.12500000000E+03  0.80419002446E+02 0. -1.
</event>
<event>
 4    1  0.1590495E-001  0.1250000E+03  0.7546771E-02  0.1126479E+00
        -11   -1    0    0    0    0  0.00000000000E+00  0.00000000000E+00  0.12500000000E+03  0.12500000000E+03  0.00000000000E+00 0.  1.
         11   -1    0    0    0    0 -0.00000000000E+00 -0.00000000000E+00 -0.12500000000E+03  0.12500000000E+03  0.00000000000E+00 0. -1.
         24    1    1    2    0    0 -0.36288084940E+02 -0.11427681281E+02  0.87808695683E+02  0.12500000000E+03  0.80419002446E+02 0.  1.
        -24    1    1    2    0    0  0.36288084940E+02  0.11427681281E+02 -0.87808695683E+02  0.12500000000E+03  0.80419002446E+02 0. -1.
</event>
<event>
 4    1  0.1590495E-001  0.1250000E+03  0.7546771E-02  0.1126479E+00
        -11   -1    0    0    0    0  0.00000000000E+00  0.00000000000E+00  0.12500000000E+03  0.12500000000E+03  0.00000000000E+00 0.  1.
         11   -1    0    0    0    0 -0.00000000000E+00 -0.00000000000E+00 -0.12500000000E+03  0.12500000000E+03  0.00000000000E+00 0. -1.
         24    1    1    2    0    0  0.50008855526E+02  0.79954701673E+01  0.81197111226E+02  0.12500000000E+03  0.80419002446E+02 0.  1.
        -24    1    1    2    0    0 -0.50008855526E+02 -0.79954701673E+01 -0.81197111226E+02  0.12500000000E+03  0.80419002446E+02 0. -1.
</event>
<event>
 4    1  0.1590495E-001  0.1250000E+03  0.7546771E-02  0.1126479E+00
        -11   -1    0    0    0    0  0.00000000000E+00  0.00000000000E+00  0.12500000000E+03  0.12500000000E+03  0.00000000000E+00 0.  1.
         11   -1    0    0    0    0 -0.00000000000E+00 -0.00000000000E+00 -0.12500000000E+03  0.12500000000E+03  0.00000000000E+00 0. -1.
         24    1    1    2    0    0  0.46614800254E+02  0.19202999531E+02  0.81339346272E+02  0.12500000000E+03  0.80419002446E+02 0.  1.
        -24    1    1    2    0    0 -0.46614800254E+02 -0.19202999531E+02 -0.81339346272E+02  0.12500000000E+03  0.80419002446E+02 0. -1.
</event>
<event>
 4    1  0.1590495E-001  0.1250000E+03  0.7546771E-02  0.1126479E+00
        -11   -1    0    0    0    0  0.00000000000E+00  0.00000000000E+00  0.12500000000E+03  0.12500000000E+03  0.00000000000E+00 0.  1.
         11   -1    0    0    0    0 -0.00000000000E+00 -0.00000000000E+00 -0.12500000000E+03  0.12500000000E+03  0.00000000000E+00 0. -1.
         24    1    1    2    0    0  0.18348861426E+02 -0.76211322069E+01  0.93611012567E+02  0.12500000000E+03  0.80419002446E+02 0.  1.
        -24    1    1    2    0    0 -0.18348861426E+02  0.76211322069E+01 -0.93611012567E+02  0.12500000000E+03  0.80419002446E+02 0. -1.
</event>
<event>
 4    1  0.1590495E-001  0.1250000E+03  0.7546771E-02  0.1126479E+00
        -11   -1    0    0    0    0  0.00000000000E+00  0.00000000000E+00  0.12500000000E+03  0.12500000000E+03  0.00000000000E+00 0.  1.
         11   -1    0    0    0    0 -0.00000000000E+00 -0.00000000000E+00 -0.12500000000E+03  0.12500000000E+03  0.00000000000E+00 0. -1.
         24    1    1    2    0    0 -0.40213437181E+02 -0.92116901684E+01  0.86347022415E+02  0.12500000000E+03  0.80419002446E+02 0.  1.
        -24    1    1    2    0    0  0.40213437181E+02  0.92116901684E+01 -0.86347022415E+02  0.12500000000E+03  0.80419002446E+02 0. -1.
</event>
<event>
 4    1  0.1590495E-001  0.1250000E+03  0.7546771E-02  0.1126479E+00
        -11   -1    0    0    0    0  0.00000000000E+00  0.00000000000E+00  0.12500000000E+03  0.12500000000E+03  0.00000000000E+00 0.  1.
         11   -1    0    0    0    0 -0.00000000000E+00 -0.00000000000E+00 -0.12500000000E+03  0.12500000000E+03  0.00000000000E+00 0. -1.
         24    1    1    2    0    0  0.36643056968E+02  0.32157426602E+02  0.82346647388E+02  0.12500000000E+03  0.80419002446E+02 0.  1.
        -24    1    1    2    0    0 -0.36643056968E+02 -0.32157426602E+02 -0.82346647388E+02  0.12500000000E+03  0.80419002446E+02 0. -1.
</event>
<event>
 4    1  0.1590495E-001  0.1250000E+03  0.7546771E-02  0.1126479E+00
        -11   -1    0    0    0    0  0.00000000000E+00  0.00000000000E+00  0.12500000000E+03  0.12500000000E+03  0.00000000000E+00 0.  1.
         11   -1    0    0    0    0 -0.00000000000E+00 -0.00000000000E+00 -0.12500000000E+03  0.12500000000E+03  0.00000000000E+00 0. -1.
         24    1    1    2    0    0  0.32624362563E+02 -0.12526522614E+02  0.89087155326E+02  0.12500000000E+03  0.80419002446E+02 0.  1.
        -24    1    1    2    0    0 -0.32624362563E+02  0.12526522614E+02 -0.89087155326E+02  0.12500000000E+03  0.80419002446E+02 0. -1.
</event>
<event>
 4    1  0.1590495E-001  0.1250000E+03  0.7546771E-02  0.1126479E+00
        -11   -1    0    0    0    0  0.00000000000E+00  0.00000000000E+00  0.12500000000E+03  0.12500000000E+03  0.00000000000E+00 0.  1.
         11   -1    0    0    0    0 -0.00000000000E+00 -0.00000000000E+00 -0.12500000000E+03  0.12500000000E+03  0.00000000000E+00 0. -1.
         24    1    1    2    0    0 -0.25436112100E+02  0.31293916802E+02  0.86784094269E+02  0.12500000000E+03  0.80419002446E+02 0.  1.
        -24    1    1    2    0    0  0.25436112100E+02 -0.31293916802E+02 -0.86784094269E+02  0.12500000000E+03  0.80419002446E+02 0. -1.
</event>
<event>
 4    1  0.1590495E-001  0.1250000E+03  0.7546771E-02  0.1126479E+00
        -11   -1    0    0    0    0  0.00000000000E+00  0.00000000000E+00  0.12500000000E+03  0.12500000000E+03  0.00000000000E+00 0.  1.
         11   -1    0    0    0    0 -0.00000000000E+00 -0.00000000000E+00 -0.12500000000E+03  0.12500000000E+03  0.00000000000E+00 0. -1.
         24    1    1    2    0    0  0.14721281561E+02  0.19647118902E+02  0.92493559958E+02  0.12500000000E+03  0.80419002446E+02 0.  1.
        -24    1    1    2    0    0 -0.14721281561E+02 -0.19647118902E+02 -0.92493559958E+02  0.12500000000E+03  0.80419002446E+02 0. -1.
</event>
<event>
 4    1  0.1590495E-001  0.1250000E+03  0.7546771E-02  0.1126479E+00
        -11   -1    0    0    0    0  0.00000000000E+00  0.00000000000E+00  0.12500000000E+03  0.12500000000E+03  0.00000000000E+00 0.  1.
         11   -1    0    0    0    0 -0.00000000000E+00 -0.00000000000E+00 -0.12500000000E+03  0.12500000000E+03  0.00000000000E+00 0. -1.
         24    1    1    2    0    0  0.25069642001E+02 -0.90517010661E+02  0.18329426519E+02  0.12500000000E+03  0.80419002446E+02 0.  1.
        -24    1    1    2    0    0 -0.25069642001E+02  0.90517010661E+02 -0.18329426519E+02  0.12500000000E+03  0.80419002446E+02 0. -1.
</event>
<event>
 4    1  0.1590495E-001  0.1250000E+03  0.7546771E-02  0.1126479E+00
        -11   -1    0    0    0    0  0.00000000000E+00  0.00000000000E+00  0.12500000000E+03  0.12500000000E+03  0.00000000000E+00 0.  1.
         11   -1    0    0    0    0 -0.00000000000E+00 -0.00000000000E+00 -0.12500000000E+03  0.12500000000E+03  0.00000000000E+00 0. -1.
         24    1    1    2    0    0  0.21022960391E+02  0.74313077507E+02  0.56510049491E+02  0.12500000000E+03  0.80419002446E+02 0.  1.
        -24    1    1    2    0    0 -0.21022960391E+02 -0.74313077507E+02 -0.56510049491E+02  0.12500000000E+03  0.80419002446E+02 0. -1.
</event>
<event>
 4    1  0.1590495E-001  0.1250000E+03  0.7546771E-02  0.1126479E+00
        -11   -1    0    0    0    0  0.00000000000E+00  0.00000000000E+00  0.12500000000E+03  0.12500000000E+03  0.00000000000E+00 0.  1.
         11   -1    0    0    0    0 -0.00000000000E+00 -0.00000000000E+00 -0.12500000000E+03  0.12500000000E+03  0.00000000000E+00 0. -1.
         24    1    1    2    0    0 -0.18934425211E+02 -0.98457770916E+01  0.93286291925E+02  0.12500000000E+03  0.80419002446E+02 0.  0.
        -24    1    1    2    0    0  0.18934425211E+02  0.98457770916E+01 -0.93286291925E+02  0.12500000000E+03  0.80419002446E+02 0.  0.
</event>
<event>
 4    1  0.1590495E-001  0.1250000E+03  0.7546771E-02  0.1126479E+00
        -11   -1    0    0    0    0  0.00000000000E+00  0.00000000000E+00  0.12500000000E+03  0.12500000000E+03  0.00000000000E+00 0.  1.
         11   -1    0    0    0    0 -0.00000000000E+00 -0.00000000000E+00 -0.12500000000E+03  0.12500000000E+03  0.00000000000E+00 0. -1.
         24    1    1    2    0    0  0.11850457858E+02  0.57209495491E+01  0.94787242973E+02  0.12500000000E+03  0.80419002446E+02 0.  1.
        -24    1    1    2    0    0 -0.11850457858E+02 -0.57209495491E+01 -0.94787242973E+02  0.12500000000E+03  0.80419002446E+02 0.  0.
</event>
<event>
 4    1  0.1590495E-001  0.1250000E+03  0.7546771E-02  0.1126479E+00
        -11   -1    0    0    0    0  0.00000000000E+00  0.00000000000E+00  0.12500000000E+03  0.12500000000E+03  0.00000000000E+00 0.  1.
         11   -1    0    0    0    0 -0.00000000000E+00 -0.00000000000E+00 -0.12500000000E+03  0.12500000000E+03  0.00000000000E+00 0. -1.
         24    1    1    2    0    0 -0.14739855291E+02 -0.30034396308E+02  0.89657435554E+02  0.12500000000E+03  0.80419002446E+02 0.  1.
        -24    1    1    2    0    0  0.14739855291E+02  0.30034396308E+02 -0.89657435554E+02  0.12500000000E+03  0.80419002446E+02 0. -1.
</event>
<event>
 4    1  0.1590495E-001  0.1250000E+03  0.7546771E-02  0.1126479E+00
        -11   -1    0    0    0    0  0.00000000000E+00  0.00000000000E+00  0.12500000000E+03  0.12500000000E+03  0.00000000000E+00 0.  1.
         11   -1    0    0    0    0 -0.00000000000E+00 -0.00000000000E+00 -0.12500000000E+03  0.12500000000E+03  0.00000000000E+00 0. -1.
         24    1    1    2    0    0  0.30006927801E+02  0.19407523329E+02  0.88773398988E+02  0.12500000000E+03  0.80419002446E+02 0.  1.
        -24    1    1    2    0    0 -0.30006927801E+02 -0.19407523329E+02 -0.88773398988E+02  0.12500000000E+03  0.80419002446E+02 0. -1.
</event>
<event>
 4    1  0.1590495E-001  0.1250000E+03  0.7546771E-02  0.1126479E+00
        -11   -1    0    0    0    0  0.00000000000E+00  0.00000000000E+00  0.12500000000E+03  0.12500000000E+03  0.00000000000E+00 0.  1.
         11   -1    0    0    0    0 -0.00000000000E+00 -0.00000000000E+00 -0.12500000000E+03  0.12500000000E+03  0.00000000000E+00 0. -1.
         24    1    1    2    0    0  0.49344182202E+02 -0.36259247966E+02  0.73540483174E+02  0.12500000000E+03  0.80419002446E+02 0.  1.
        -24    1    1    2    0    0 -0.49344182202E+02  0.36259247966E+02 -0.73540483174E+02  0.12500000000E+03  0.80419002446E+02 0. -1.
</event>
<event>
 4    1  0.1590495E-001  0.1250000E+03  0.7546771E-02  0.1126479E+00
        -11   -1    0    0    0    0  0.00000000000E+00  0.00000000000E+00  0.12500000000E+03  0.12500000000E+03  0.00000000000E+00 0.  1.
         11   -1    0    0    0    0 -0.00000000000E+00 -0.00000000000E+00 -0.12500000000E+03  0.12500000000E+03  0.00000000000E+00 0. -1.
         24    1    1    2    0    0 -0.63500778797E+02 -0.46327671251E+02  0.54581883572E+02  0.12500000000E+03  0.80419002446E+02 0.  1.
        -24    1    1    2    0    0  0.63500778797E+02  0.46327671251E+02 -0.54581883572E+02  0.12500000000E+03  0.80419002446E+02 0. -1.
</event>
<event>
 4    1  0.1590495E-001  0.1250000E+03  0.7546771E-02  0.1126479E+00
        -11   -1    0    0    0    0  0.00000000000E+00  0.00000000000E+00  0.12500000000E+03  0.12500000000E+03  0.00000000000E+00 0.  1.
         11   -1    0    0    0    0 -0.00000000000E+00 -0.00000000000E+00 -0.12500000000E+03  0.12500000000E+03  0.00000000000E+00 0. -1.
         24    1    1    2    0    0 -0.12410800345E+02  0.39619469876E+02  0.86220958515E+02  0.12500000000E+03  0.80419002446E+02 0.  1.
        -24    1    1    2    0    0  0.12410800345E+02 -0.39619469876E+02 -0.86220958515E+02  0.12500000000E+03  0.80419002446E+02 0. -1.
</event>
<event>
 4    1  0.1590495E-001  0.1250000E+03  0.7546771E-02  0.1126479E+00
        -11   -1    0    0    0    0  0.00000000000E+00  0.00000000000E+00  0.12500000000E+03  0.12500000000E+03  0.00000000000E+00 0.  1.
         11   -1    0    0    0    0 -0.00000000000E+00 -0.00000000000E+00 -0.12500000000E+03  0.12500000000E+03  0.00000000000E+00 0. -1.
         24    1    1    2    0    0 -0.50137174707E+01 -0.32943091717E+02  0.89707298426E+02  0.12500000000E+03  0.80419002446E+02 0.  1.
        -24    1    1    2    0    0  0.50137174707E+01  0.32943091717E+02 -0.89707298426E+02  0.12500000000E+03  0.80419002446E+02 0. -1.
</event>
<event>
 4    1  0.1590495E-001  0.1250000E+03  0.7546771E-02  0.1126479E+00
        -11   -1    0    0    0    0  0.00000000000E+00  0.00000000000E+00  0.12500000000E+03  0.12500000000E+03  0.00000000000E+00 0.  1.
         11   -1    0    0    0    0 -0.00000000000E+00 -0.00000000000E+00 -0.12500000000E+03  0.12500000000E+03  0.00000000000E+00 0. -1.
         24    1    1    2    0    0 -0.15982270501E+02  0.31100566535E+02  0.89079211023E+02  0.12500000000E+03  0.80419002446E+02 0.  1.
        -24    1    1    2    0    0  0.15982270501E+02 -0.31100566535E+02 -0.89079211023E+02  0.12500000000E+03  0.80419002446E+02 0. -1.
</event>
<event>
 4    1  0.1590495E-001  0.1250000E+03  0.7546771E-02  0.1126479E+00
        -11   -1    0    0    0    0  0.00000000000E+00  0.00000000000E+00  0.12500000000E+03  0.12500000000E+03  0.00000000000E+00 0.  1.
         11   -1    0    0    0    0 -0.00000000000E+00 -0.00000000000E+00 -0.12500000000E+03  0.12500000000E+03  0.00000000000E+00 0. -1.
         24    1    1    2    0    0  0.32921219534E+02  0.89542797777E+02 -0.74876375669E+01  0.12500000000E+03  0.80419002446E+02 0. -1.
        -24    1    1    2    0    0 -0.32921219534E+02 -0.89542797777E+02  0.74876375669E+01  0.12500000000E+03  0.80419002446E+02 0.  1.
</event>
<event>
 4    1  0.1590495E-001  0.1250000E+03  0.7546771E-02  0.1126479E+00
        -11   -1    0    0    0    0  0.00000000000E+00  0.00000000000E+00  0.12500000000E+03  0.12500000000E+03  0.00000000000E+00 0.  1.
         11   -1    0    0    0    0 -0.00000000000E+00 -0.00000000000E+00 -0.12500000000E+03  0.12500000000E+03  0.00000000000E+00 0. -1.
         24    1    1    2    0    0 -0.11447096498E+02  0.70884009322E+02  0.63262984832E+02  0.12500000000E+03  0.80419002446E+02 0. -1.
        -24    1    1    2    0    0  0.11447096498E+02 -0.70884009322E+02 -0.63262984832E+02  0.12500000000E+03  0.80419002446E+02 0.  0.
</event>
<event>
 4    1  0.1590495E-001  0.1250000E+03  0.7546771E-02  0.1126479E+00
        -11   -1    0    0    0    0  0.00000000000E+00  0.00000000000E+00  0.12500000000E+03  0.12500000000E+03  0.00000000000E+00 0.  1.
         11   -1    0    0    0    0 -0.00000000000E+00 -0.00000000000E+00 -0.12500000000E+03  0.12500000000E+03  0.00000000000E+00 0. -1.
         24    1    1    2    0    0 -0.17994491490E+02  0.18193715725E+02  0.92211555836E+02  0.12500000000E+03  0.80419002446E+02 0.  1.
        -24    1    1    2    0    0  0.17994491490E+02 -0.18193715725E+02 -0.92211555836E+02  0.12500000000E+03  0.80419002446E+02 0. -1.
</event>
<event>
 4    1  0.1590495E-001  0.1250000E+03  0.7546771E-02  0.1126479E+00
        -11   -1    0    0    0    0  0.00000000000E+00  0.00000000000E+00  0.12500000000E+03  0.12500000000E+03  0.00000000000E+00 0.  1.
         11   -1    0    0    0    0 -0.00000000000E+00 -0.00000000000E+00 -0.12500000000E+03  0.12500000000E+03  0.00000000000E+00 0. -1.
         24    1    1    2    0    0 -0.72253590403E+01 -0.31520104573E+01  0.95371080850E+02  0.12500000000E+03  0.80419002446E+02 0.  0.
        -24    1    1    2    0    0  0.72253590403E+01  0.31520104573E+01 -0.95371080850E+02  0.12500000000E+03  0.80419002446E+02 0.  0.
</event>
<event>
 4    1  0.1590495E-001  0.1250000E+03  0.7546771E-02  0.1126479E+00
        -11   -1    0    0    0    0  0.00000000000E+00  0.00000000000E+00  0.12500000000E+03  0.12500000000E+03  0.00000000000E+00 0. -1.
         11   -1    0    0    0    0 -0.00000000000E+00 -0.00000000000E+00 -0.12500000000E+03  0.12500000000E+03  0.00000000000E+00 0.  1.
         24    1    1    2    0    0 -0.10819413719E+01  0.73891932429E+02  0.60799636269E+02  0.12500000000E+03  0.80419002446E+02 0.  0.
        -24    1    1    2    0    0  0.10819413719E+01 -0.73891932429E+02 -0.60799636269E+02  0.12500000000E+03  0.80419002446E+02 0.  0.
</event>
<event>
 4    1  0.1590495E-001  0.1250000E+03  0.7546771E-02  0.1126479E+00
        -11   -1    0    0    0    0  0.00000000000E+00  0.00000000000E+00  0.12500000000E+03  0.12500000000E+03  0.00000000000E+00 0.  1.
         11   -1    0    0    0    0 -0.00000000000E+00 -0.00000000000E+00 -0.12500000000E+03  0.12500000000E+03  0.00000000000E+00 0. -1.
         24    1    1    2    0    0  0.17687145520E+02  0.77921304816E+02  0.52661363301E+02  0.12500000000E+03  0.80419002446E+02 0.  1.
        -24    1    1    2    0    0 -0.17687145520E+02 -0.77921304816E+02 -0.52661363301E+02  0.12500000000E+03  0.80419002446E+02 0. -1.
</event>
<event>
 4    1  0.1590495E-001  0.1250000E+03  0.7546771E-02  0.1126479E+00
        -11   -1    0    0    0    0  0.00000000000E+00  0.00000000000E+00  0.12500000000E+03  0.12500000000E+03  0.00000000000E+00 0.  1.
         11   -1    0    0    0    0 -0.00000000000E+00 -0.00000000000E+00 -0.12500000000E+03  0.12500000000E+03  0.00000000000E+00 0. -1.
         24    1    1    2    0    0 -0.31554458394E+01 -0.15217398306E+02  0.94425939212E+02  0.12500000000E+03  0.80419002446E+02 0.  1.
        -24    1    1    2    0    0  0.31554458394E+01  0.15217398306E+02 -0.94425939212E+02  0.12500000000E+03  0.80419002446E+02 0. -1.
</event>
<event>
 4    1  0.1590495E-001  0.1250000E+03  0.7546771E-02  0.1126479E+00
        -11   -1    0    0    0    0  0.00000000000E+00  0.00000000000E+00  0.12500000000E+03  0.12500000000E+03  0.00000000000E+00 0.  1.
         11   -1    0    0    0    0 -0.00000000000E+00 -0.00000000000E+00 -0.12500000000E+03  0.12500000000E+03  0.00000000000E+00 0. -1.
         24    1    1    2    0    0  0.98847108023E+01 -0.24884664046E+02  0.91873989972E+02  0.12500000000E+03  0.80419002446E+02 0.  1.
        -24    1    1    2    0    0 -0.98847108023E+01  0.24884664046E+02 -0.91873989972E+02  0.12500000000E+03  0.80419002446E+02 0. -1.
</event>
<event>
 4    1  0.1590495E-001  0.1250000E+03  0.7546771E-02  0.1126479E+00
        -11   -1    0    0    0    0  0.00000000000E+00  0.00000000000E+00  0.12500000000E+03  0.12500000000E+03  0.00000000000E+00 0.  1.
         11   -1    0    0    0    0 -0.00000000000E+00 -0.00000000000E+00 -0.12500000000E+03  0.12500000000E+03  0.00000000000E+00 0. -1.
         24    1    1    2    0    0 -0.80321222278E+01  0.32016314868E+01 -0.95304871932E+02  0.12500000000E+03  0.80419002446E+02 0. -1.
        -24    1    1    2    0    0  0.80321222278E+01 -0.32016314868E+01  0.95304871932E+02  0.12500000000E+03  0.80419002446E+02 0.  0.
</event>
<event>
 4    1  0.1590495E-001  0.1250000E+03  0.7546771E-02  0.1126479E+00
        -11   -1    0    0    0    0  0.00000000000E+00  0.00000000000E+00  0.12500000000E+03  0.12500000000E+03  0.00000000000E+00 0.  1.
         11   -1    0    0    0    0 -0.00000000000E+00 -0.00000000000E+00 -0.12500000000E+03  0.12500000000E+03  0.00000000000E+00 0. -1.
         24    1    1    2    0    0 -0.87895772424E+02  0.19689806336E+02  0.32317623089E+02  0.12500000000E+03  0.80419002446E+02 0.  1.
        -24    1    1    2    0    0  0.87895772424E+02 -0.19689806336E+02 -0.32317623089E+02  0.12500000000E+03  0.80419002446E+02 0. -1.
</event>
<event>
 4    1  0.1590495E-001  0.1250000E+03  0.7546771E-02  0.1126479E+00
        -11   -1    0    0    0    0  0.00000000000E+00  0.00000000000E+00  0.12500000000E+03  0.12500000000E+03  0.00000000000E+00 0.  1.
         11   -1    0    0    0    0 -0.00000000000E+00 -0.00000000000E+00 -0.12500000000E+03  0.12500000000E+03  0.00000000000E+00 0. -1.
         24    1    1    2    0    0 -0.91872005551E+02 -0.36969450080E+01  0.26526425303E+02  0.12500000000E+03  0.80419002446E+02 0. -1.
        -24    1    1    2    0    0  0.91872005551E+02  0.36969450080E+01 -0.26526425303E+02  0.12500000000E+03  0.80419002446E+02 0.  0.
</event>
<event>
 4    1  0.1590495E-001  0.1250000E+03  0.7546771E-02  0.1126479E+00
        -11   -1    0    0    0    0  0.00000000000E+00  0.00000000000E+00  0.12500000000E+03  0.12500000000E+03  0.00000000000E+00 0.  1.
         11   -1    0    0    0    0 -0.00000000000E+00 -0.00000000000E+00 -0.12500000000E+03  0.12500000000E+03  0.00000000000E+00 0. -1.
         24    1    1    2    0    0  0.81150593722E+02 -0.25691648593E+02  0.43729902547E+02  0.12500000000E+03  0.80419002446E+02 0.  1.
        -24    1    1    2    0    0 -0.81150593722E+02  0.25691648593E+02 -0.43729902547E+02  0.12500000000E+03  0.80419002446E+02 0. -1.
</event>
<event>
 4    1  0.1590495E-001  0.1250000E+03  0.7546771E-02  0.1126479E+00
        -11   -1    0    0    0    0  0.00000000000E+00  0.00000000000E+00  0.12500000000E+03  0.12500000000E+03  0.00000000000E+00 0.  1.
         11   -1    0    0    0    0 -0.00000000000E+00 -0.00000000000E+00 -0.12500000000E+03  0.12500000000E+03  0.00000000000E+00 0. -1.
         24    1    1    2    0    0  0.15099251319E+02 -0.37772553256E+02  0.86620037380E+02  0.12500000000E+03  0.80419002446E+02 0.  1.
        -24    1    1    2    0    0 -0.15099251319E+02  0.37772553256E+02 -0.86620037380E+02  0.12500000000E+03  0.80419002446E+02 0. -1.
</event>
<event>
 4    1  0.1590495E-001  0.1250000E+03  0.7546771E-02  0.1126479E+00
        -11   -1    0    0    0    0  0.00000000000E+00  0.00000000000E+00  0.12500000000E+03  0.12500000000E+03  0.00000000000E+00 0.  1.
         11   -1    0    0    0    0 -0.00000000000E+00 -0.00000000000E+00 -0.12500000000E+03  0.12500000000E+03  0.00000000000E+00 0. -1.
         24    1    1    2    0    0 -0.73157425334E+02 -0.56689379986E+02  0.24332886406E+02  0.12500000000E+03  0.80419002446E+02 0.  1.
        -24    1    1    2    0    0  0.73157425334E+02  0.56689379986E+02 -0.24332886406E+02  0.12500000000E+03  0.80419002446E+02 0. -1.
</event>
<event>
 4    1  0.1590495E-001  0.1250000E+03  0.7546771E-02  0.1126479E+00
        -11   -1    0    0    0    0  0.00000000000E+00  0.00000000000E+00  0.12500000000E+03  0.12500000000E+03  0.00000000000E+00 0.  1.
         11   -1    0    0    0    0 -0.00000000000E+00 -0.00000000000E+00 -0.12500000000E+03  0.12500000000E+03  0.00000000000E+00 0. -1.
         24    1    1    2    0    0  0.14889524222E+02 -0.64340800029E+02  0.69255668113E+02  0.12500000000E+03  0.80419002446E+02 0. -1.
        -24    1    1    2    0    0 -0.14889524222E+02  0.64340800029E+02 -0.69255668113E+02  0.12500000000E+03  0.80419002446E+02 0.  0.
</event>
<event>
 4    1  0.1590495E-001  0.1250000E+03  0.7546771E-02  0.1126479E+00
        -11   -1    0    0    0    0  0.00000000000E+00  0.00000000000E+00  0.12500000000E+03  0.12500000000E+03  0.00000000000E+00 0.  1.
         11   -1    0    0    0    0 -0.00000000000E+00 -0.00000000000E+00 -0.12500000000E+03  0.12500000000E+03  0.00000000000E+00 0. -1.
         24    1    1    2    0    0  0.41233575164E+02 -0.86320956776E+02 -0.25037464261E+01  0.12500000000E+03  0.80419002446E+02 0. -1.
        -24    1    1    2    0    0 -0.41233575164E+02  0.86320956776E+02  0.25037464261E+01  0.12500000000E+03  0.80419002446E+02 0.  1.
</event>
<event>
 4    1  0.1590495E-001  0.1250000E+03  0.7546771E-02  0.1126479E+00
        -11   -1    0    0    0    0  0.00000000000E+00  0.00000000000E+00  0.12500000000E+03  0.12500000000E+03  0.00000000000E+00 0.  1.
         11   -1    0    0    0    0 -0.00000000000E+00 -0.00000000000E+00 -0.12500000000E+03  0.12500000000E+03  0.00000000000E+00 0. -1.
         24    1    1    2    0    0 -0.10717503488E+02 -0.28372342236E+02  0.90763039618E+02  0.12500000000E+03  0.80419002446E+02 0.  1.
        -24    1    1    2    0    0  0.10717503488E+02  0.28372342236E+02 -0.90763039618E+02  0.12500000000E+03  0.80419002446E+02 0.  0.
</event>
<event>
 4    1  0.1590495E-001  0.1250000E+03  0.7546771E-02  0.1126479E+00
        -11   -1    0    0    0    0  0.00000000000E+00  0.00000000000E+00  0.12500000000E+03  0.12500000000E+03  0.00000000000E+00 0.  1.
         11   -1    0    0    0    0 -0.00000000000E+00 -0.00000000000E+00 -0.12500000000E+03  0.12500000000E+03  0.00000000000E+00 0. -1.
         24    1    1    2    0    0  0.37216260052E+02  0.53649023579E+02  0.69960819767E+02  0.12500000000E+03  0.80419002446E+02 0.  1.
        -24    1    1    2    0    0 -0.37216260052E+02 -0.53649023579E+02 -0.69960819767E+02  0.12500000000E+03  0.80419002446E+02 0. -1.
</event>
<event>
 4    1  0.1590495E-001  0.1250000E+03  0.7546771E-02  0.1126479E+00
        -11   -1    0    0    0    0  0.00000000000E+00  0.00000000000E+00  0.12500000000E+03  0.12500000000E+03  0.00000000000E+00 0.  1.
         11   -1    0    0    0    0 -0.00000000000E+00 -0.00000000000E+00 -0.12500000000E+03  0.12500000000E+03  0.00000000000E+00 0. -1.
         24    1    1    2    0    0 -0.11657781922E+02  0.63967824785E+01  0.94767934135E+02  0.12500000000E+03  0.80419002446E+02 0.  1.
        -24    1    1    2    0    0  0.11657781922E+02 -0.63967824785E+01 -0.94767934135E+02  0.12500000000E+03  0.80419002446E+02 0.  0.
</event>
<event>
 4    1  0.1590495E-001  0.1250000E+03  0.7546771E-02  0.1126479E+00
        -11   -1    0    0    0    0  0.00000000000E+00  0.00000000000E+00  0.12500000000E+03  0.12500000000E+03  0.00000000000E+00 0.  1.
         11   -1    0    0    0    0 -0.00000000000E+00 -0.00000000000E+00 -0.12500000000E+03  0.12500000000E+03  0.00000000000E+00 0. -1.
         24    1    1    2    0    0 -0.13345579216E+02 -0.32310420119E+02  0.89082637550E+02  0.12500000000E+03  0.80419002446E+02 0. -1.
        -24    1    1    2    0    0  0.13345579216E+02  0.32310420119E+02 -0.89082637550E+02  0.12500000000E+03  0.80419002446E+02 0.  0.
</event>
<event>
 4    1  0.1590495E-001  0.1250000E+03  0.7546771E-02  0.1126479E+00
        -11   -1    0    0    0    0  0.00000000000E+00  0.00000000000E+00  0.12500000000E+03  0.12500000000E+03  0.00000000000E+00 0.  1.
         11   -1    0    0    0    0 -0.00000000000E+00 -0.00000000000E+00 -0.12500000000E+03  0.12500000000E+03  0.00000000000E+00 0. -1.
         24    1    1    2    0    0  0.38433167387E+02  0.14746677593E+02  0.86389878980E+02  0.12500000000E+03  0.80419002446E+02 0.  1.
        -24    1    1    2    0    0 -0.38433167387E+02 -0.14746677593E+02 -0.86389878980E+02  0.12500000000E+03  0.80419002446E+02 0. -1.
</event>
<event>
 4    1  0.1590495E-001  0.1250000E+03  0.7546771E-02  0.1126479E+00
        -11   -1    0    0    0    0  0.00000000000E+00  0.00000000000E+00  0.12500000000E+03  0.12500000000E+03  0.00000000000E+00 0.  1.
         11   -1    0    0    0    0 -0.00000000000E+00 -0.00000000000E+00 -0.12500000000E+03  0.12500000000E+03  0.00000000000E+00 0. -1.
         24    1    1    2    0    0  0.52541073834E+02  0.78994391263E+02  0.12534183455E+02  0.12500000000E+03  0.80419002446E+02 0.  1.
        -24    1    1    2    0    0 -0.52541073834E+02 -0.78994391263E+02 -0.12534183455E+02  0.12500000000E+03  0.80419002446E+02 0. -1.
</event>
<event>
 4    1  0.1590495E-001  0.1250000E+03  0.7546771E-02  0.1126479E+00
        -11   -1    0    0    0    0  0.00000000000E+00  0.00000000000E+00  0.12500000000E+03  0.12500000000E+03  0.00000000000E+00 0.  1.
         11   -1    0    0    0    0 -0.00000000000E+00 -0.00000000000E+00 -0.12500000000E+03  0.12500000000E+03  0.00000000000E+00 0. -1.
         24    1    1    2    0    0 -0.14257202325E+02  0.33698398798E+02  0.88424737183E+02  0.12500000000E+03  0.80419002446E+02 0.  1.
        -24    1    1    2    0    0  0.14257202325E+02 -0.33698398798E+02 -0.88424737183E+02  0.12500000000E+03  0.80419002446E+02 0. -1.
</event>
<event>
 4    1  0.1590495E-001  0.1250000E+03  0.7546771E-02  0.1126479E+00
        -11   -1    0    0    0    0  0.00000000000E+00  0.00000000000E+00  0.12500000000E+03  0.12500000000E+03  0.00000000000E+00 0.  1.
         11   -1    0    0    0    0 -0.00000000000E+00 -0.00000000000E+00 -0.12500000000E+03  0.12500000000E+03  0.00000000000E+00 0. -1.
         24    1    1    2    0    0  0.58263902667E+02  0.47304889167E+02  0.59374650757E+02  0.12500000000E+03  0.80419002446E+02 0.  1.
        -24    1    1    2    0    0 -0.58263902667E+02 -0.47304889167E+02 -0.59374650757E+02  0.12500000000E+03  0.80419002446E+02 0. -1.
</event>
<event>
 4    1  0.1590495E-001  0.1250000E+03  0.7546771E-02  0.1126479E+00
        -11   -1    0    0    0    0  0.00000000000E+00  0.00000000000E+00  0.12500000000E+03  0.12500000000E+03  0.00000000000E+00 0.  1.
         11   -1    0    0    0    0 -0.00000000000E+00 -0.00000000000E+00 -0.12500000000E+03  0.12500000000E+03  0.00000000000E+00 0. -1.
         24    1    1    2    0    0 -0.11889399245E+02 -0.46881398915E+02  0.82574576396E+02  0.12500000000E+03  0.80419002446E+02 0.  1.
        -24    1    1    2    0    0  0.11889399245E+02  0.46881398915E+02 -0.82574576396E+02  0.12500000000E+03  0.80419002446E+02 0. -1.
</event>
<event>
 4    1  0.1590495E-001  0.1250000E+03  0.7546771E-02  0.1126479E+00
        -11   -1    0    0    0    0  0.00000000000E+00  0.00000000000E+00  0.12500000000E+03  0.12500000000E+03  0.00000000000E+00 0.  1.
         11   -1    0    0    0    0 -0.00000000000E+00 -0.00000000000E+00 -0.12500000000E+03  0.12500000000E+03  0.00000000000E+00 0. -1.
         24    1    1    2    0    0  0.11262058808E+02  0.21239752495E+02  0.92627333930E+02  0.12500000000E+03  0.80419002446E+02 0.  1.
        -24    1    1    2    0    0 -0.11262058808E+02 -0.21239752495E+02 -0.92627333930E+02  0.12500000000E+03  0.80419002446E+02 0. -1.
</event>
<event>
 4    1  0.1590495E-001  0.1250000E+03  0.7546771E-02  0.1126479E+00
        -11   -1    0    0    0    0  0.00000000000E+00  0.00000000000E+00  0.12500000000E+03  0.12500000000E+03  0.00000000000E+00 0.  1.
         11   -1    0    0    0    0 -0.00000000000E+00 -0.00000000000E+00 -0.12500000000E+03  0.12500000000E+03  0.00000000000E+00 0. -1.
         24    1    1    2    0    0  0.23497024039E+02 -0.15853741266E+02  0.91402039336E+02  0.12500000000E+03  0.80419002446E+02 0.  1.
        -24    1    1    2    0    0 -0.23497024039E+02  0.15853741266E+02 -0.91402039336E+02  0.12500000000E+03  0.80419002446E+02 0. -1.
</event>
<event>
 4    1  0.1590495E-001  0.1250000E+03  0.7546771E-02  0.1126479E+00
        -11   -1    0    0    0    0  0.00000000000E+00  0.00000000000E+00  0.12500000000E+03  0.12500000000E+03  0.00000000000E+00 0.  1.
         11   -1    0    0    0    0 -0.00000000000E+00 -0.00000000000E+00 -0.12500000000E+03  0.12500000000E+03  0.00000000000E+00 0. -1.
         24    1    1    2    0    0  0.44985449304E+02 -0.12047280796E+02  0.83599978600E+02  0.12500000000E+03  0.80419002446E+02 0.  1.
        -24    1    1    2    0    0 -0.44985449304E+02  0.12047280796E+02 -0.83599978600E+02  0.12500000000E+03  0.80419002446E+02 0. -1.
</event>
<event>
 4    1  0.1590495E-001  0.1250000E+03  0.7546771E-02  0.1126479E+00
        -11   -1    0    0    0    0  0.00000000000E+00  0.00000000000E+00  0.12500000000E+03  0.12500000000E+03  0.00000000000E+00 0.  1.
         11   -1    0    0    0    0 -0.00000000000E+00 -0.00000000000E+00 -0.12500000000E+03  0.12500000000E+03  0.00000000000E+00 0. -1.
         24    1    1    2    0    0 -0.34164397649E+02 -0.98061996417E+01  0.88850528572E+02  0.12500000000E+03  0.80419002446E+02 0.  1.
        -24    1    1    2    0    0  0.34164397649E+02  0.98061996417E+01 -0.88850528572E+02  0.12500000000E+03  0.80419002446E+02 0. -1.
</event>
<event>
 4    1  0.1590495E-001  0.1250000E+03  0.7546771E-02  0.1126479E+00
        -11   -1    0    0    0    0  0.00000000000E+00  0.00000000000E+00  0.12500000000E+03  0.12500000000E+03  0.00000000000E+00 0.  1.
         11   -1    0    0    0    0 -0.00000000000E+00 -0.00000000000E+00 -0.12500000000E+03  0.12500000000E+03  0.00000000000E+00 0. -1.
         24    1    1    2    0    0 -0.21798740114E+02  0.30857734117E+02  0.87922688882E+02  0.12500000000E+03  0.80419002446E+02 0.  1.
        -24    1    1    2    0    0  0.21798740114E+02 -0.30857734117E+02 -0.87922688882E+02  0.12500000000E+03  0.80419002446E+02 0. -1.
</event>
<event>
 4    1  0.1590495E-001  0.1250000E+03  0.7546771E-02  0.1126479E+00
        -11   -1    0    0    0    0  0.00000000000E+00  0.00000000000E+00  0.12500000000E+03  0.12500000000E+03  0.00000000000E+00 0.  1.
         11   -1    0    0    0    0 -0.00000000000E+00 -0.00000000000E+00 -0.12500000000E+03  0.12500000000E+03  0.00000000000E+00 0. -1.
         24    1    1    2    0    0 -0.32071718341E+02 -0.14172609302E+02  0.89041148206E+02  0.12500000000E+03  0.80419002446E+02 0.  1.
        -24    1    1    2    0    0  0.32071718341E+02  0.14172609302E+02 -0.89041148206E+02  0.12500000000E+03  0.80419002446E+02 0. -1.
</event>
<event>
 4    1  0.1590495E-001  0.1250000E+03  0.7546771E-02  0.1126479E+00
        -11   -1    0    0    0    0  0.00000000000E+00  0.00000000000E+00  0.12500000000E+03  0.12500000000E+03  0.00000000000E+00 0.  1.
         11   -1    0    0    0    0 -0.00000000000E+00 -0.00000000000E+00 -0.12500000000E+03  0.12500000000E+03  0.00000000000E+00 0. -1.
         24    1    1    2    0    0  0.10541146063E+01 -0.35532996938E+02  0.88848629796E+02  0.12500000000E+03  0.80419002446E+02 0.  1.
        -24    1    1    2    0    0 -0.10541146063E+01  0.35532996938E+02 -0.88848629796E+02  0.12500000000E+03  0.80419002446E+02 0. -1.
</event>
<event>
 4    1  0.1590495E-001  0.1250000E+03  0.7546771E-02  0.1126479E+00
        -11   -1    0    0    0    0  0.00000000000E+00  0.00000000000E+00  0.12500000000E+03  0.12500000000E+03  0.00000000000E+00 0.  1.
         11   -1    0    0    0    0 -0.00000000000E+00 -0.00000000000E+00 -0.12500000000E+03  0.12500000000E+03  0.00000000000E+00 0. -1.
         24    1    1    2    0    0 -0.75624551608E+02 -0.25750711544E+02 -0.52684078189E+02  0.12500000000E+03  0.80419002446E+02 0. -1.
        -24    1    1    2    0    0  0.75624551608E+02  0.25750711544E+02  0.52684078189E+02  0.12500000000E+03  0.80419002446E+02 0.  1.
</event>
<event>
 4    1  0.1590495E-001  0.1250000E+03  0.7546771E-02  0.1126479E+00
        -11   -1    0    0    0    0  0.00000000000E+00  0.00000000000E+00  0.12500000000E+03  0.12500000000E+03  0.00000000000E+00 0.  1.
         11   -1    0    0    0    0 -0.00000000000E+00 -0.00000000000E+00 -0.12500000000E+03  0.12500000000E+03  0.00000000000E+00 0. -1.
         24    1    1    2    0    0 -0.59637176954E+02 -0.28885048788E+02  0.69042343001E+02  0.12500000000E+03  0.80419002446E+02 0.  1.
        -24    1    1    2    0    0  0.59637176954E+02  0.28885048788E+02 -0.69042343001E+02  0.12500000000E+03  0.80419002446E+02 0. -1.
</event>
<event>
 4    1  0.1590495E-001  0.1250000E+03  0.7546771E-02  0.1126479E+00
        -11   -1    0    0    0    0  0.00000000000E+00  0.00000000000E+00  0.12500000000E+03  0.12500000000E+03  0.00000000000E+00 0.  1.
         11   -1    0    0    0    0 -0.00000000000E+00 -0.00000000000E+00 -0.12500000000E+03  0.12500000000E+03  0.00000000000E+00 0. -1.
         24    1    1    2    0    0 -0.65276200066E+02 -0.27870427292E+02  0.64187545779E+02  0.12500000000E+03  0.80419002446E+02 0.  1.
        -24    1    1    2    0    0  0.65276200066E+02  0.27870427292E+02 -0.64187545779E+02  0.12500000000E+03  0.80419002446E+02 0. -1.
</event>
<event>
 4    1  0.1590495E-001  0.1250000E+03  0.7546771E-02  0.1126479E+00
        -11   -1    0    0    0    0  0.00000000000E+00  0.00000000000E+00  0.12500000000E+03  0.12500000000E+03  0.00000000000E+00 0.  1.
         11   -1    0    0    0    0 -0.00000000000E+00 -0.00000000000E+00 -0.12500000000E+03  0.12500000000E+03  0.00000000000E+00 0. -1.
         24    1    1    2    0    0  0.92352595959E+02 -0.23429182041E+02 -0.89361901384E+01  0.12500000000E+03  0.80419002446E+02 0.  1.
        -24    1    1    2    0    0 -0.92352595959E+02  0.23429182041E+02  0.89361901384E+01  0.12500000000E+03  0.80419002446E+02 0.  0.
</event>
<event>
 4    1  0.1590495E-001  0.1250000E+03  0.7546771E-02  0.1126479E+00
        -11   -1    0    0    0    0  0.00000000000E+00  0.00000000000E+00  0.12500000000E+03  0.12500000000E+03  0.00000000000E+00 0.  1.
         11   -1    0    0    0    0 -0.00000000000E+00 -0.00000000000E+00 -0.12500000000E+03  0.12500000000E+03  0.00000000000E+00 0. -1.
         24    1    1    2    0    0 -0.81776675915E+02 -0.13890402961E+02 -0.47722280200E+02  0.12500000000E+03  0.80419002446E+02 0.  0.
        -24    1    1    2    0    0  0.81776675915E+02  0.13890402961E+02  0.47722280200E+02  0.12500000000E+03  0.80419002446E+02 0.  0.
</event>
<event>
 4    1  0.1590495E-001  0.1250000E+03  0.7546771E-02  0.1126479E+00
        -11   -1    0    0    0    0  0.00000000000E+00  0.00000000000E+00  0.12500000000E+03  0.12500000000E+03  0.00000000000E+00 0.  1.
         11   -1    0    0    0    0 -0.00000000000E+00 -0.00000000000E+00 -0.12500000000E+03  0.12500000000E+03  0.00000000000E+00 0. -1.
         24    1    1    2    0    0  0.21509094725E+02  0.64566126412E+02  0.67278214972E+02  0.12500000000E+03  0.80419002446E+02 0. -1.
        -24    1    1    2    0    0 -0.21509094725E+02 -0.64566126412E+02 -0.67278214972E+02  0.12500000000E+03  0.80419002446E+02 0.  1.
</event>
<event>
 4    1  0.1590495E-001  0.1250000E+03  0.7546771E-02  0.1126479E+00
        -11   -1    0    0    0    0  0.00000000000E+00  0.00000000000E+00  0.12500000000E+03  0.12500000000E+03  0.00000000000E+00 0.  1.
         11   -1    0    0    0    0 -0.00000000000E+00 -0.00000000000E+00 -0.12500000000E+03  0.12500000000E+03  0.00000000000E+00 0. -1.
         24    1    1    2    0    0 -0.41486017491E+02 -0.35669599198E+02  0.78513528079E+02  0.12500000000E+03  0.80419002446E+02 0.  1.
        -24    1    1    2    0    0  0.41486017491E+02  0.35669599198E+02 -0.78513528079E+02  0.12500000000E+03  0.80419002446E+02 0. -1.
</event>
<event>
 4    1  0.1590495E-001  0.1250000E+03  0.7546771E-02  0.1126479E+00
        -11   -1    0    0    0    0  0.00000000000E+00  0.00000000000E+00  0.12500000000E+03  0.12500000000E+03  0.00000000000E+00 0.  1.
         11   -1    0    0    0    0 -0.00000000000E+00 -0.00000000000E+00 -0.12500000000E+03  0.12500000000E+03  0.00000000000E+00 0. -1.
         24    1    1    2    0    0  0.13391670738E+02  0.16785091294E+02  0.93256141410E+02  0.12500000000E+03  0.80419002446E+02 0.  1.
        -24    1    1    2    0    0 -0.13391670738E+02 -0.16785091294E+02 -0.93256141410E+02  0.12500000000E+03  0.80419002446E+02 0. -1.
</event>
<event>
 4    1  0.1590495E-001  0.1250000E+03  0.7546771E-02  0.1126479E+00
        -11   -1    0    0    0    0  0.00000000000E+00  0.00000000000E+00  0.12500000000E+03  0.12500000000E+03  0.00000000000E+00 0.  1.
         11   -1    0    0    0    0 -0.00000000000E+00 -0.00000000000E+00 -0.12500000000E+03  0.12500000000E+03  0.00000000000E+00 0. -1.
         24    1    1    2    0    0 -0.30697696569E+02 -0.50417334243E+02  0.75322824421E+02  0.12500000000E+03  0.80419002446E+02 0.  1.
        -24    1    1    2    0    0  0.30697696569E+02  0.50417334243E+02 -0.75322824421E+02  0.12500000000E+03  0.80419002446E+02 0. -1.
</event>
<event>
 4    1  0.1590495E-001  0.1250000E+03  0.7546771E-02  0.1126479E+00
        -11   -1    0    0    0    0  0.00000000000E+00  0.00000000000E+00  0.12500000000E+03  0.12500000000E+03  0.00000000000E+00 0.  1.
         11   -1    0    0    0    0 -0.00000000000E+00 -0.00000000000E+00 -0.12500000000E+03  0.12500000000E+03  0.00000000000E+00 0. -1.
         24    1    1    2    0    0  0.70049925176E+01 -0.55007370616E+02  0.77992969577E+02  0.12500000000E+03  0.80419002446E+02 0.  1.
        -24    1    1    2    0    0 -0.70049925176E+01  0.55007370616E+02 -0.77992969577E+02  0.12500000000E+03  0.80419002446E+02 0. -1.
</event>
<event>
 4    1  0.1590495E-001  0.1250000E+03  0.7546771E-02  0.1126479E+00
        -11   -1    0    0    0    0  0.00000000000E+00  0.00000000000E+00  0.12500000000E+03  0.12500000000E+03  0.00000000000E+00 0.  1.
         11   -1    0    0    0    0 -0.00000000000E+00 -0.00000000000E+00 -0.12500000000E+03  0.12500000000E+03  0.00000000000E+00 0. -1.
         24    1    1    2    0    0 -0.59402315126E+02 -0.15261500589E+02  0.73459074341E+02  0.12500000000E+03  0.80419002446E+02 0.  1.
        -24    1    1    2    0    0  0.59402315126E+02  0.15261500589E+02 -0.73459074341E+02  0.12500000000E+03  0.80419002446E+02 0. -1.
</event>
<event>
 4    1  0.1590495E-001  0.1250000E+03  0.7546771E-02  0.1126479E+00
        -11   -1    0    0    0    0  0.00000000000E+00  0.00000000000E+00  0.12500000000E+03  0.12500000000E+03  0.00000000000E+00 0.  1.
         11   -1    0    0    0    0 -0.00000000000E+00 -0.00000000000E+00 -0.12500000000E+03  0.12500000000E+03  0.00000000000E+00 0. -1.
         24    1    1    2    0    0 -0.86577144742E+02 -0.14060602131E+02  0.38268544807E+02  0.12500000000E+03  0.80419002446E+02 0.  1.
        -24    1    1    2    0    0  0.86577144742E+02  0.14060602131E+02 -0.38268544807E+02  0.12500000000E+03  0.80419002446E+02 0. -1.
</event>
<event>
 4    1  0.1590495E-001  0.1250000E+03  0.7546771E-02  0.1126479E+00
        -11   -1    0    0    0    0  0.00000000000E+00  0.00000000000E+00  0.12500000000E+03  0.12500000000E+03  0.00000000000E+00 0.  1.
         11   -1    0    0    0    0 -0.00000000000E+00 -0.00000000000E+00 -0.12500000000E+03  0.12500000000E+03  0.00000000000E+00 0. -1.
         24    1    1    2    0    0 -0.39656831463E+02  0.82994944778E+01  0.86696240722E+02  0.12500000000E+03  0.80419002446E+02 0.  1.
        -24    1    1    2    0    0  0.39656831463E+02 -0.82994944778E+01 -0.86696240722E+02  0.12500000000E+03  0.80419002446E+02 0. -1.
</event>
<event>
 4    1  0.1590495E-001  0.1250000E+03  0.7546771E-02  0.1126479E+00
        -11   -1    0    0    0    0  0.00000000000E+00  0.00000000000E+00  0.12500000000E+03  0.12500000000E+03  0.00000000000E+00 0.  1.
         11   -1    0    0    0    0 -0.00000000000E+00 -0.00000000000E+00 -0.12500000000E+03  0.12500000000E+03  0.00000000000E+00 0. -1.
         24    1    1    2    0    0  0.37630915862E+02  0.19452817796E+02  0.85809592102E+02  0.12500000000E+03  0.80419002446E+02 0.  1.
        -24    1    1    2    0    0 -0.37630915862E+02 -0.19452817796E+02 -0.85809592102E+02  0.12500000000E+03  0.80419002446E+02 0. -1.
</event>
<event>
 4    1  0.1590495E-001  0.1250000E+03  0.7546771E-02  0.1126479E+00
        -11   -1    0    0    0    0  0.00000000000E+00  0.00000000000E+00  0.12500000000E+03  0.12500000000E+03  0.00000000000E+00 0.  1.
         11   -1    0    0    0    0 -0.00000000000E+00 -0.00000000000E+00 -0.12500000000E+03  0.12500000000E+03  0.00000000000E+00 0. -1.
         24    1    1    2    0    0  0.63761785720E+01 -0.72001750864E+02  0.62712648366E+02  0.12500000000E+03  0.80419002446E+02 0.  0.
        -24    1    1    2    0    0 -0.63761785720E+01  0.72001750864E+02 -0.62712648366E+02  0.12500000000E+03  0.80419002446E+02 0. -1.
</event>
<event>
 4    1  0.1590495E-001  0.1250000E+03  0.7546771E-02  0.1126479E+00
        -11   -1    0    0    0    0  0.00000000000E+00  0.00000000000E+00  0.12500000000E+03  0.12500000000E+03  0.00000000000E+00 0.  1.
         11   -1    0    0    0    0 -0.00000000000E+00 -0.00000000000E+00 -0.12500000000E+03  0.12500000000E+03  0.00000000000E+00 0. -1.
         24    1    1    2    0    0 -0.84930572849E+02  0.35504452639E+02  0.26153693505E+02  0.12500000000E+03  0.80419002446E+02 0.  1.
        -24    1    1    2    0    0  0.84930572849E+02 -0.35504452639E+02 -0.26153693505E+02  0.12500000000E+03  0.80419002446E+02 0. -1.
</event>
<event>
 4    1  0.1590495E-001  0.1250000E+03  0.7546771E-02  0.1126479E+00
        -11   -1    0    0    0    0  0.00000000000E+00  0.00000000000E+00  0.12500000000E+03  0.12500000000E+03  0.00000000000E+00 0.  1.
         11   -1    0    0    0    0 -0.00000000000E+00 -0.00000000000E+00 -0.12500000000E+03  0.12500000000E+03  0.00000000000E+00 0. -1.
         24    1    1    2    0    0 -0.16348830952E+02 -0.63839031376E+02  0.69390761958E+02  0.12500000000E+03  0.80419002446E+02 0.  1.
        -24    1    1    2    0    0  0.16348830952E+02  0.63839031376E+02 -0.69390761958E+02  0.12500000000E+03  0.80419002446E+02 0. -1.
</event>
<event>
 4    1  0.1590495E-001  0.1250000E+03  0.7546771E-02  0.1126479E+00
        -11   -1    0    0    0    0  0.00000000000E+00  0.00000000000E+00  0.12500000000E+03  0.12500000000E+03  0.00000000000E+00 0.  1.
         11   -1    0    0    0    0 -0.00000000000E+00 -0.00000000000E+00 -0.12500000000E+03  0.12500000000E+03  0.00000000000E+00 0. -1.
         24    1    1    2    0    0 -0.10529612269E+02  0.65644226684E+01  0.94888459078E+02  0.12500000000E+03  0.80419002446E+02 0.  1.
        -24    1    1    2    0    0  0.10529612269E+02 -0.65644226684E+01 -0.94888459078E+02  0.12500000000E+03  0.80419002446E+02 0.  0.
</event>
<event>
 4    1  0.1590495E-001  0.1250000E+03  0.7546771E-02  0.1126479E+00
        -11   -1    0    0    0    0  0.00000000000E+00  0.00000000000E+00  0.12500000000E+03  0.12500000000E+03  0.00000000000E+00 0.  1.
         11   -1    0    0    0    0 -0.00000000000E+00 -0.00000000000E+00 -0.12500000000E+03  0.12500000000E+03  0.00000000000E+00 0. -1.
         24    1    1    2    0    0  0.12931490681E+02 -0.70419400696E+01  0.94556711419E+02  0.12500000000E+03  0.80419002446E+02 0.  1.
        -24    1    1    2    0    0 -0.12931490681E+02  0.70419400696E+01 -0.94556711419E+02  0.12500000000E+03  0.80419002446E+02 0. -1.
</event>
<event>
 4    1  0.1590495E-001  0.1250000E+03  0.7546771E-02  0.1126479E+00
        -11   -1    0    0    0    0  0.00000000000E+00  0.00000000000E+00  0.12500000000E+03  0.12500000000E+03  0.00000000000E+00 0.  1.
         11   -1    0    0    0    0 -0.00000000000E+00 -0.00000000000E+00 -0.12500000000E+03  0.12500000000E+03  0.00000000000E+00 0. -1.
         24    1    1    2    0    0 -0.25629681278E+02 -0.85833296986E+01  0.91799945177E+02  0.12500000000E+03  0.80419002446E+02 0.  1.
        -24    1    1    2    0    0  0.25629681278E+02  0.85833296986E+01 -0.91799945177E+02  0.12500000000E+03  0.80419002446E+02 0. -1.
</event>
<event>
 4    1  0.1590495E-001  0.1250000E+03  0.7546771E-02  0.1126479E+00
        -11   -1    0    0    0    0  0.00000000000E+00  0.00000000000E+00  0.12500000000E+03  0.12500000000E+03  0.00000000000E+00 0.  1.
         11   -1    0    0    0    0 -0.00000000000E+00 -0.00000000000E+00 -0.12500000000E+03  0.12500000000E+03  0.00000000000E+00 0. -1.
         24    1    1    2    0    0  0.20941185725E+02  0.14193575218E+02  0.92291891348E+02  0.12500000000E+03  0.80419002446E+02 0.  1.
        -24    1    1    2    0    0 -0.20941185725E+02 -0.14193575218E+02 -0.92291891348E+02  0.12500000000E+03  0.80419002446E+02 0.  0.
</event>
<event>
 4    1  0.1590495E-001  0.1250000E+03  0.7546771E-02  0.1126479E+00
        -11   -1    0    0    0    0  0.00000000000E+00  0.00000000000E+00  0.12500000000E+03  0.12500000000E+03  0.00000000000E+00 0.  1.
         11   -1    0    0    0    0 -0.00000000000E+00 -0.00000000000E+00 -0.12500000000E+03  0.12500000000E+03  0.00000000000E+00 0. -1.
         24    1    1    2    0    0  0.72047309696E+02  0.33531178252E+02  0.53316313604E+02  0.12500000000E+03  0.80419002446E+02 0.  1.
        -24    1    1    2    0    0 -0.72047309696E+02 -0.33531178252E+02 -0.53316313604E+02  0.12500000000E+03  0.80419002446E+02 0. -1.
</event>
<event>
 4    1  0.1590495E-001  0.1250000E+03  0.7546771E-02  0.1126479E+00
        -11   -1    0    0    0    0  0.00000000000E+00  0.00000000000E+00  0.12500000000E+03  0.12500000000E+03  0.00000000000E+00 0.  1.
         11   -1    0    0    0    0 -0.00000000000E+00 -0.00000000000E+00 -0.12500000000E+03  0.12500000000E+03  0.00000000000E+00 0. -1.
         24    1    1    2    0    0  0.71716039401E+02  0.74696505464E+01  0.62918980117E+02  0.12500000000E+03  0.80419002446E+02 0.  1.
        -24    1    1    2    0    0 -0.71716039401E+02 -0.74696505464E+01 -0.62918980117E+02  0.12500000000E+03  0.80419002446E+02 0. -1.
</event>
<event>
 4    1  0.1590495E-001  0.1250000E+03  0.7546771E-02  0.1126479E+00
        -11   -1    0    0    0    0  0.00000000000E+00  0.00000000000E+00  0.12500000000E+03  0.12500000000E+03  0.00000000000E+00 0.  1.
         11   -1    0    0    0    0 -0.00000000000E+00 -0.00000000000E+00 -0.12500000000E+03  0.12500000000E+03  0.00000000000E+00 0. -1.
         24    1    1    2    0    0  0.69051654023E+02 -0.83853089658E+01  0.65721683757E+02  0.12500000000E+03  0.80419002446E+02 0.  1.
        -24    1    1    2    0    0 -0.69051654023E+02  0.83853089658E+01 -0.65721683757E+02  0.12500000000E+03  0.80419002446E+02 0. -1.
</event>
<event>
 4    1  0.1590495E-001  0.1250000E+03  0.7546771E-02  0.1126479E+00
        -11   -1    0    0    0    0  0.00000000000E+00  0.00000000000E+00  0.12500000000E+03  0.12500000000E+03  0.00000000000E+00 0.  1.
         11   -1    0    0    0    0 -0.00000000000E+00 -0.00000000000E+00 -0.12500000000E+03  0.12500000000E+03  0.00000000000E+00 0. -1.
         24    1    1    2    0    0  0.61466314939E+02  0.19443347970E+02  0.70722219939E+02  0.12500000000E+03  0.80419002446E+02 0.  1.
        -24    1    1    2    0    0 -0.61466314939E+02 -0.19443347970E+02 -0.70722219939E+02  0.12500000000E+03  0.80419002446E+02 0. -1.
</event>
<event>
 4    1  0.1590495E-001  0.1250000E+03  0.7546771E-02  0.1126479E+00
        -11   -1    0    0    0    0  0.00000000000E+00  0.00000000000E+00  0.12500000000E+03  0.12500000000E+03  0.00000000000E+00 0.  1.
         11   -1    0    0    0    0 -0.00000000000E+00 -0.00000000000E+00 -0.12500000000E+03  0.12500000000E+03  0.00000000000E+00 0. -1.
         24    1    1    2    0    0  0.53642356458E+02 -0.51722745157E+02  0.60041979253E+02  0.12500000000E+03  0.80419002446E+02 0.  1.
        -24    1    1    2    0    0 -0.53642356458E+02  0.51722745157E+02 -0.60041979253E+02  0.12500000000E+03  0.80419002446E+02 0. -1.
</event>
<event>
 4    1  0.1590495E-001  0.1250000E+03  0.7546771E-02  0.1126479E+00
        -11   -1    0    0    0    0  0.00000000000E+00  0.00000000000E+00  0.12500000000E+03  0.12500000000E+03  0.00000000000E+00 0.  1.
         11   -1    0    0    0    0 -0.00000000000E+00 -0.00000000000E+00 -0.12500000000E+03  0.12500000000E+03  0.00000000000E+00 0. -1.
         24    1    1    2    0    0  0.46190397007E+02 -0.23297066206E+02  0.80507626820E+02  0.12500000000E+03  0.80419002446E+02 0.  1.
        -24    1    1    2    0    0 -0.46190397007E+02  0.23297066206E+02 -0.80507626820E+02  0.12500000000E+03  0.80419002446E+02 0. -1.
</event>
<event>
 4    1  0.1590495E-001  0.1250000E+03  0.7546771E-02  0.1126479E+00
        -11   -1    0    0    0    0  0.00000000000E+00  0.00000000000E+00  0.12500000000E+03  0.12500000000E+03  0.00000000000E+00 0.  1.
         11   -1    0    0    0    0 -0.00000000000E+00 -0.00000000000E+00 -0.12500000000E+03  0.12500000000E+03  0.00000000000E+00 0. -1.
         24    1    1    2    0    0  0.41179517535E+02 -0.31066881240E+02  0.80603227424E+02  0.12500000000E+03  0.80419002446E+02 0.  1.
        -24    1    1    2    0    0 -0.41179517535E+02  0.31066881240E+02 -0.80603227424E+02  0.12500000000E+03  0.80419002446E+02 0. -1.
</event>
<event>
 4    1  0.1590495E-001  0.1250000E+03  0.7546771E-02  0.1126479E+00
        -11   -1    0    0    0    0  0.00000000000E+00  0.00000000000E+00  0.12500000000E+03  0.12500000000E+03  0.00000000000E+00 0.  1.
         11   -1    0    0    0    0 -0.00000000000E+00 -0.00000000000E+00 -0.12500000000E+03  0.12500000000E+03  0.00000000000E+00 0. -1.
         24    1    1    2    0    0 -0.46823446131E+02  0.21971206039E+02  0.80514688369E+02  0.12500000000E+03  0.80419002446E+02 0.  1.
        -24    1    1    2    0    0  0.46823446131E+02 -0.21971206039E+02 -0.80514688369E+02  0.12500000000E+03  0.80419002446E+02 0. -1.
</event>
<event>
 4    1  0.1590495E-001  0.1250000E+03  0.7546771E-02  0.1126479E+00
        -11   -1    0    0    0    0  0.00000000000E+00  0.00000000000E+00  0.12500000000E+03  0.12500000000E+03  0.00000000000E+00 0.  1.
         11   -1    0    0    0    0 -0.00000000000E+00 -0.00000000000E+00 -0.12500000000E+03  0.12500000000E+03  0.00000000000E+00 0. -1.
         24    1    1    2    0    0 -0.50952634857E+02 -0.35999965516E+02 -0.72564561113E+02  0.12500000000E+03  0.80419002446E+02 0. -1.
        -24    1    1    2    0    0  0.50952634857E+02  0.35999965516E+02  0.72564561113E+02  0.12500000000E+03  0.80419002446E+02 0.  1.
</event>
<event>
 4    1  0.1590495E-001  0.1250000E+03  0.7546771E-02  0.1126479E+00
        -11   -1    0    0    0    0  0.00000000000E+00  0.00000000000E+00  0.12500000000E+03  0.12500000000E+03  0.00000000000E+00 0.  1.
         11   -1    0    0    0    0 -0.00000000000E+00 -0.00000000000E+00 -0.12500000000E+03  0.12500000000E+03  0.00000000000E+00 0. -1.
         24    1    1    2    0    0  0.41266763060E+02 -0.85191560524E+02 -0.14044085149E+02  0.12500000000E+03  0.80419002446E+02 0. -1.
        -24    1    1    2    0    0 -0.41266763060E+02  0.85191560524E+02  0.14044085149E+02  0.12500000000E+03  0.80419002446E+02 0.  1.
</event>
<event>
 4    1  0.1590495E-001  0.1250000E+03  0.7546771E-02  0.1126479E+00
        -11   -1    0    0    0    0  0.00000000000E+00  0.00000000000E+00  0.12500000000E+03  0.12500000000E+03  0.00000000000E+00 0.  1.
         11   -1    0    0    0    0 -0.00000000000E+00 -0.00000000000E+00 -0.12500000000E+03  0.12500000000E+03  0.00000000000E+00 0. -1.
         24    1    1    2    0    0  0.20952518489E+02 -0.38197297525E+02  0.85204122414E+02  0.12500000000E+03  0.80419002446E+02 0.  1.
        -24    1    1    2    0    0 -0.20952518489E+02  0.38197297525E+02 -0.85204122414E+02  0.12500000000E+03  0.80419002446E+02 0. -1.
</event>
<event>
 4    1  0.1590495E-001  0.1250000E+03  0.7546771E-02  0.1126479E+00
        -11   -1    0    0    0    0  0.00000000000E+00  0.00000000000E+00  0.12500000000E+03  0.12500000000E+03  0.00000000000E+00 0.  1.
         11   -1    0    0    0    0 -0.00000000000E+00 -0.00000000000E+00 -0.12500000000E+03  0.12500000000E+03  0.00000000000E+00 0. -1.
         24    1    1    2    0    0 -0.75281313820E+01  0.17282432065E+01  0.95384089129E+02  0.12500000000E+03  0.80419002446E+02 0.  0.
        -24    1    1    2    0    0  0.75281313820E+01 -0.17282432065E+01 -0.95384089129E+02  0.12500000000E+03  0.80419002446E+02 0. -1.
</event>
<event>
 4    1  0.1590495E-001  0.1250000E+03  0.7546771E-02  0.1126479E+00
        -11   -1    0    0    0    0  0.00000000000E+00  0.00000000000E+00  0.12500000000E+03  0.12500000000E+03  0.00000000000E+00 0.  1.
         11   -1    0    0    0    0 -0.00000000000E+00 -0.00000000000E+00 -0.12500000000E+03  0.12500000000E+03  0.00000000000E+00 0. -1.
         24    1    1    2    0    0 -0.10136122360E+02  0.92778566473E+02  0.21146646837E+02  0.12500000000E+03  0.80419002446E+02 0.  1.
        -24    1    1    2    0    0  0.10136122360E+02 -0.92778566473E+02 -0.21146646837E+02  0.12500000000E+03  0.80419002446E+02 0. -1.
</event>
<event>
 4    1  0.1590495E-001  0.1250000E+03  0.7546771E-02  0.1126479E+00
        -11   -1    0    0    0    0  0.00000000000E+00  0.00000000000E+00  0.12500000000E+03  0.12500000000E+03  0.00000000000E+00 0.  1.
         11   -1    0    0    0    0 -0.00000000000E+00 -0.00000000000E+00 -0.12500000000E+03  0.12500000000E+03  0.00000000000E+00 0. -1.
         24    1    1    2    0    0 -0.17560662546E+02  0.45608496717E+01  0.93960661060E+02  0.12500000000E+03  0.80419002446E+02 0.  0.
        -24    1    1    2    0    0  0.17560662546E+02 -0.45608496717E+01 -0.93960661060E+02  0.12500000000E+03  0.80419002446E+02 0. -1.
</event>
<event>
 4    1  0.1590495E-001  0.1250000E+03  0.7546771E-02  0.1126479E+00
        -11   -1    0    0    0    0  0.00000000000E+00  0.00000000000E+00  0.12500000000E+03  0.12500000000E+03  0.00000000000E+00 0.  1.
         11   -1    0    0    0    0 -0.00000000000E+00 -0.00000000000E+00 -0.12500000000E+03  0.12500000000E+03  0.00000000000E+00 0. -1.
         24    1    1    2    0    0 -0.32807346954E+02  0.71845455477E+01  0.89609398708E+02  0.12500000000E+03  0.80419002446E+02 0.  1.
        -24    1    1    2    0    0  0.32807346954E+02 -0.71845455477E+01 -0.89609398708E+02  0.12500000000E+03  0.80419002446E+02 0. -1.
</event>
<event>
 4    1  0.1590495E-001  0.1250000E+03  0.7546771E-02  0.1126479E+00
        -11   -1    0    0    0    0  0.00000000000E+00  0.00000000000E+00  0.12500000000E+03  0.12500000000E+03  0.00000000000E+00 0.  1.
         11   -1    0    0    0    0 -0.00000000000E+00 -0.00000000000E+00 -0.12500000000E+03  0.12500000000E+03  0.00000000000E+00 0. -1.
         24    1    1    2    0    0  0.72487242310E+01 -0.10871887239E+02  0.94800011131E+02  0.12500000000E+03  0.80419002446E+02 0.  1.
        -24    1    1    2    0    0 -0.72487242310E+01  0.10871887239E+02 -0.94800011131E+02  0.12500000000E+03  0.80419002446E+02 0.  0.
</event>
<event>
 4    1  0.1590495E-001  0.1250000E+03  0.7546771E-02  0.1126479E+00
        -11   -1    0    0    0    0  0.00000000000E+00  0.00000000000E+00  0.12500000000E+03  0.12500000000E+03  0.00000000000E+00 0.  1.
         11   -1    0    0    0    0 -0.00000000000E+00 -0.00000000000E+00 -0.12500000000E+03  0.12500000000E+03  0.00000000000E+00 0. -1.
         24    1    1    2    0    0 -0.89007125949E+02  0.19583988615E+02  0.29188747248E+02  0.12500000000E+03  0.80419002446E+02 0.  0.
        -24    1    1    2    0    0  0.89007125949E+02 -0.19583988615E+02 -0.29188747248E+02  0.12500000000E+03  0.80419002446E+02 0. -1.
</event>
<event>
 4    1  0.1590495E-001  0.1250000E+03  0.7546771E-02  0.1126479E+00
        -11   -1    0    0    0    0  0.00000000000E+00  0.00000000000E+00  0.12500000000E+03  0.12500000000E+03  0.00000000000E+00 0.  1.
         11   -1    0    0    0    0 -0.00000000000E+00 -0.00000000000E+00 -0.12500000000E+03  0.12500000000E+03  0.00000000000E+00 0. -1.
         24    1    1    2    0    0 -0.27469864415E+02 -0.16763333521E+02  0.90123144885E+02  0.12500000000E+03  0.80419002446E+02 0.  1.
        -24    1    1    2    0    0  0.27469864415E+02  0.16763333521E+02 -0.90123144885E+02  0.12500000000E+03  0.80419002446E+02 0. -1.
</event>
<event>
 4    1  0.1590495E-001  0.1250000E+03  0.7546771E-02  0.1126479E+00
        -11   -1    0    0    0    0  0.00000000000E+00  0.00000000000E+00  0.12500000000E+03  0.12500000000E+03  0.00000000000E+00 0.  1.
         11   -1    0    0    0    0 -0.00000000000E+00 -0.00000000000E+00 -0.12500000000E+03  0.12500000000E+03  0.00000000000E+00 0. -1.
         24    1    1    2    0    0  0.54163146985E+02  0.78891431503E+02  0.52876241606E+00  0.12500000000E+03  0.80419002446E+02 0. -1.
        -24    1    1    2    0    0 -0.54163146985E+02 -0.78891431503E+02 -0.52876241606E+00  0.12500000000E+03  0.80419002446E+02 0.  1.
</event>
<event>
 4    1  0.1590495E-001  0.1250000E+03  0.7546771E-02  0.1126479E+00
        -11   -1    0    0    0    0  0.00000000000E+00  0.00000000000E+00  0.12500000000E+03  0.12500000000E+03  0.00000000000E+00 0.  1.
         11   -1    0    0    0    0 -0.00000000000E+00 -0.00000000000E+00 -0.12500000000E+03  0.12500000000E+03  0.00000000000E+00 0. -1.
         24    1    1    2    0    0  0.89148480410E+02 -0.26573342230E+02  0.22454174865E+02  0.12500000000E+03  0.80419002446E+02 0.  1.
        -24    1    1    2    0    0 -0.89148480410E+02  0.26573342230E+02 -0.22454174865E+02  0.12500000000E+03  0.80419002446E+02 0. -1.
</event>
<event>
 4    1  0.1590495E-001  0.1250000E+03  0.7546771E-02  0.1126479E+00
        -11   -1    0    0    0    0  0.00000000000E+00  0.00000000000E+00  0.12500000000E+03  0.12500000000E+03  0.00000000000E+00 0.  1.
         11   -1    0    0    0    0 -0.00000000000E+00 -0.00000000000E+00 -0.12500000000E+03  0.12500000000E+03  0.00000000000E+00 0. -1.
         24    1    1    2    0    0 -0.77189852170E+02 -0.34173346475E+02  0.45074307076E+02  0.12500000000E+03  0.80419002446E+02 0.  1.
        -24    1    1    2    0    0  0.77189852170E+02  0.34173346475E+02 -0.45074307076E+02  0.12500000000E+03  0.80419002446E+02 0. -1.
</event>
<event>
 4    1  0.1590495E-001  0.1250000E+03  0.7546771E-02  0.1126479E+00
        -11   -1    0    0    0    0  0.00000000000E+00  0.00000000000E+00  0.12500000000E+03  0.12500000000E+03  0.00000000000E+00 0.  1.
         11   -1    0    0    0    0 -0.00000000000E+00 -0.00000000000E+00 -0.12500000000E+03  0.12500000000E+03  0.00000000000E+00 0. -1.
         24    1    1    2    0    0  0.22250985523E+02 -0.85486240835E+02  0.36807340528E+02  0.12500000000E+03  0.80419002446E+02 0.  0.
        -24    1    1    2    0    0 -0.22250985523E+02  0.85486240835E+02 -0.36807340528E+02  0.12500000000E+03  0.80419002446E+02 0. -1.
</event>
<event>
 4    1  0.1590495E-001  0.1250000E+03  0.7546771E-02  0.1126479E+00
        -11   -1    0    0    0    0  0.00000000000E+00  0.00000000000E+00  0.12500000000E+03  0.12500000000E+03  0.00000000000E+00 0.  1.
         11   -1    0    0    0    0 -0.00000000000E+00 -0.00000000000E+00 -0.12500000000E+03  0.12500000000E+03  0.00000000000E+00 0. -1.
         24    1    1    2    0    0 -0.22108748659E+02  0.84537094470E+02 -0.39018802352E+02  0.12500000000E+03  0.80419002446E+02 0.  1.
        -24    1    1    2    0    0  0.22108748659E+02 -0.84537094470E+02  0.39018802352E+02  0.12500000000E+03  0.80419002446E+02 0. -1.
</event>
<event>
 4    1  0.1590495E-001  0.1250000E+03  0.7546771E-02  0.1126479E+00
        -11   -1    0    0    0    0  0.00000000000E+00  0.00000000000E+00  0.12500000000E+03  0.12500000000E+03  0.00000000000E+00 0.  1.
         11   -1    0    0    0    0 -0.00000000000E+00 -0.00000000000E+00 -0.12500000000E+03  0.12500000000E+03  0.00000000000E+00 0. -1.
         24    1    1    2    0    0 -0.17306659273E+02  0.22289578748E+02  0.91440900420E+02  0.12500000000E+03  0.80419002446E+02 0.  1.
        -24    1    1    2    0    0  0.17306659273E+02 -0.22289578748E+02 -0.91440900420E+02  0.12500000000E+03  0.80419002446E+02 0. -1.
</event>
<event>
 4    1  0.1590495E-001  0.1250000E+03  0.7546771E-02  0.1126479E+00
        -11   -1    0    0    0    0  0.00000000000E+00  0.00000000000E+00  0.12500000000E+03  0.12500000000E+03  0.00000000000E+00 0.  1.
         11   -1    0    0    0    0 -0.00000000000E+00 -0.00000000000E+00 -0.12500000000E+03  0.12500000000E+03  0.00000000000E+00 0. -1.
         24    1    1    2    0    0  0.58052197924E+02 -0.54256449531E+02  0.53328829409E+02  0.12500000000E+03  0.80419002446E+02 0.  1.
        -24    1    1    2    0    0 -0.58052197924E+02  0.54256449531E+02 -0.53328829409E+02  0.12500000000E+03  0.80419002446E+02 0. -1.
</event>
<event>
 4    1  0.1590495E-001  0.1250000E+03  0.7546771E-02  0.1126479E+00
        -11   -1    0    0    0    0  0.00000000000E+00  0.00000000000E+00  0.12500000000E+03  0.12500000000E+03  0.00000000000E+00 0.  1.
         11   -1    0    0    0    0 -0.00000000000E+00 -0.00000000000E+00 -0.12500000000E+03  0.12500000000E+03  0.00000000000E+00 0. -1.
         24    1    1    2    0    0 -0.11706318968E+02 -0.37483955397E+02  0.87267973677E+02  0.12500000000E+03  0.80419002446E+02 0.  1.
        -24    1    1    2    0    0  0.11706318968E+02  0.37483955397E+02 -0.87267973677E+02  0.12500000000E+03  0.80419002446E+02 0. -1.
</event>
<event>
 4    1  0.1590495E-001  0.1250000E+03  0.7546771E-02  0.1126479E+00
        -11   -1    0    0    0    0  0.00000000000E+00  0.00000000000E+00  0.12500000000E+03  0.12500000000E+03  0.00000000000E+00 0.  1.
         11   -1    0    0    0    0 -0.00000000000E+00 -0.00000000000E+00 -0.12500000000E+03  0.12500000000E+03  0.00000000000E+00 0. -1.
         24    1    1    2    0    0  0.36237004500E+02 -0.63571489665E+02  0.61671137919E+02  0.12500000000E+03  0.80419002446E+02 0.  1.
        -24    1    1    2    0    0 -0.36237004500E+02  0.63571489665E+02 -0.61671137919E+02  0.12500000000E+03  0.80419002446E+02 0. -1.
</event>
<event>
 4    1  0.1590495E-001  0.1250000E+03  0.7546771E-02  0.1126479E+00
        -11   -1    0    0    0    0  0.00000000000E+00  0.00000000000E+00  0.12500000000E+03  0.12500000000E+03  0.00000000000E+00 0.  1.
         11   -1    0    0    0    0 -0.00000000000E+00 -0.00000000000E+00 -0.12500000000E+03  0.12500000000E+03  0.00000000000E+00 0. -1.
         24    1    1    2    0    0 -0.94463695093E+02 -0.10557933359E+02  0.11087127585E+02  0.12500000000E+03  0.80419002446E+02 0.  1.
        -24    1    1    2    0    0  0.94463695093E+02  0.10557933359E+02 -0.11087127585E+02  0.12500000000E+03  0.80419002446E+02 0. -1.
</event>
<event>
 4    1  0.1590495E-001  0.1250000E+03  0.7546771E-02  0.1126479E+00
        -11   -1    0    0    0    0  0.00000000000E+00  0.00000000000E+00  0.12500000000E+03  0.12500000000E+03  0.00000000000E+00 0.  1.
         11   -1    0    0    0    0 -0.00000000000E+00 -0.00000000000E+00 -0.12500000000E+03  0.12500000000E+03  0.00000000000E+00 0. -1.
         24    1    1    2    0    0 -0.29733351721E+02  0.90505210937E+02  0.90839767896E+01  0.12500000000E+03  0.80419002446E+02 0. -1.
        -24    1    1    2    0    0  0.29733351721E+02 -0.90505210937E+02 -0.90839767896E+01  0.12500000000E+03  0.80419002446E+02 0.  1.
</event>
<event>
 4    1  0.1590495E-001  0.1250000E+03  0.7546771E-02  0.1126479E+00
        -11   -1    0    0    0    0  0.00000000000E+00  0.00000000000E+00  0.12500000000E+03  0.12500000000E+03  0.00000000000E+00 0.  1.
         11   -1    0    0    0    0 -0.00000000000E+00 -0.00000000000E+00 -0.12500000000E+03  0.12500000000E+03  0.00000000000E+00 0. -1.
         24    1    1    2    0    0  0.31905184347E+02 -0.55709835522E+02  0.70966594138E+02  0.12500000000E+03  0.80419002446E+02 0.  1.
        -24    1    1    2    0    0 -0.31905184347E+02  0.55709835522E+02 -0.70966594138E+02  0.12500000000E+03  0.80419002446E+02 0. -1.
</event>
<event>
 4    1  0.1590495E-001  0.1250000E+03  0.7546771E-02  0.1126479E+00
        -11   -1    0    0    0    0  0.00000000000E+00  0.00000000000E+00  0.12500000000E+03  0.12500000000E+03  0.00000000000E+00 0.  1.
         11   -1    0    0    0    0 -0.00000000000E+00 -0.00000000000E+00 -0.12500000000E+03  0.12500000000E+03  0.00000000000E+00 0. -1.
         24    1    1    2    0    0  0.90286954029E+02 -0.82009003577E+01  0.30639765193E+02  0.12500000000E+03  0.80419002446E+02 0.  0.
        -24    1    1    2    0    0 -0.90286954029E+02  0.82009003577E+01 -0.30639765193E+02  0.12500000000E+03  0.80419002446E+02 0. -1.
</event>
<event>
 4    1  0.1590495E-001  0.1250000E+03  0.7546771E-02  0.1126479E+00
        -11   -1    0    0    0    0  0.00000000000E+00  0.00000000000E+00  0.12500000000E+03  0.12500000000E+03  0.00000000000E+00 0.  1.
         11   -1    0    0    0    0 -0.00000000000E+00 -0.00000000000E+00 -0.12500000000E+03  0.12500000000E+03  0.00000000000E+00 0. -1.
         24    1    1    2    0    0 -0.21140758736E+02  0.24102081902E+02  0.90166191079E+02  0.12500000000E+03  0.80419002446E+02 0.  0.
        -24    1    1    2    0    0  0.21140758736E+02 -0.24102081902E+02 -0.90166191079E+02  0.12500000000E+03  0.80419002446E+02 0. -1.
</event>
<event>
 4    1  0.1590495E-001  0.1250000E+03  0.7546771E-02  0.1126479E+00
        -11   -1    0    0    0    0  0.00000000000E+00  0.00000000000E+00  0.12500000000E+03  0.12500000000E+03  0.00000000000E+00 0.  1.
         11   -1    0    0    0    0 -0.00000000000E+00 -0.00000000000E+00 -0.12500000000E+03  0.12500000000E+03  0.00000000000E+00 0. -1.
         24    1    1    2    0    0  0.30566210369E+02 -0.39296369027E+02  0.81726900165E+02  0.12500000000E+03  0.80419002446E+02 0.  1.
        -24    1    1    2    0    0 -0.30566210369E+02  0.39296369027E+02 -0.81726900165E+02  0.12500000000E+03  0.80419002446E+02 0. -1.
</event>
<event>
 4    1  0.1590495E-001  0.1250000E+03  0.7546771E-02  0.1126479E+00
        -11   -1    0    0    0    0  0.00000000000E+00  0.00000000000E+00  0.12500000000E+03  0.12500000000E+03  0.00000000000E+00 0.  1.
         11   -1    0    0    0    0 -0.00000000000E+00 -0.00000000000E+00 -0.12500000000E+03  0.12500000000E+03  0.00000000000E+00 0. -1.
         24    1    1    2    0    0  0.15211528361E+02  0.97229008681E+01  0.93977968957E+02  0.12500000000E+03  0.80419002446E+02 0.  1.
        -24    1    1    2    0    0 -0.15211528361E+02 -0.97229008681E+01 -0.93977968957E+02  0.12500000000E+03  0.80419002446E+02 0. -1.
</event>
<event>
 4    1  0.1590495E-001  0.1250000E+03  0.7546771E-02  0.1126479E+00
        -11   -1    0    0    0    0  0.00000000000E+00  0.00000000000E+00  0.12500000000E+03  0.12500000000E+03  0.00000000000E+00 0.  1.
         11   -1    0    0    0    0 -0.00000000000E+00 -0.00000000000E+00 -0.12500000000E+03  0.12500000000E+03  0.00000000000E+00 0. -1.
         24    1    1    2    0    0 -0.41460260058E+01  0.86743443138E+02  0.40201611740E+02  0.12500000000E+03  0.80419002446E+02 0.  1.
        -24    1    1    2    0    0  0.41460260058E+01 -0.86743443138E+02 -0.40201611740E+02  0.12500000000E+03  0.80419002446E+02 0. -1.
</event>
<event>
 4    1  0.1590495E-001  0.1250000E+03  0.7546771E-02  0.1126479E+00
        -11   -1    0    0    0    0  0.00000000000E+00  0.00000000000E+00  0.12500000000E+03  0.12500000000E+03  0.00000000000E+00 0.  1.
         11   -1    0    0    0    0 -0.00000000000E+00 -0.00000000000E+00 -0.12500000000E+03  0.12500000000E+03  0.00000000000E+00 0. -1.
         24    1    1    2    0    0 -0.42187521632E+02  0.20305647157E+02  0.83460635977E+02  0.12500000000E+03  0.80419002446E+02 0.  0.
        -24    1    1    2    0    0  0.42187521632E+02 -0.20305647157E+02 -0.83460635977E+02  0.12500000000E+03  0.80419002446E+02 0.  0.
</event>
<event>
 4    1  0.1590495E-001  0.1250000E+03  0.7546771E-02  0.1126479E+00
        -11   -1    0    0    0    0  0.00000000000E+00  0.00000000000E+00  0.12500000000E+03  0.12500000000E+03  0.00000000000E+00 0.  1.
         11   -1    0    0    0    0 -0.00000000000E+00 -0.00000000000E+00 -0.12500000000E+03  0.12500000000E+03  0.00000000000E+00 0. -1.
         24    1    1    2    0    0 -0.24062816480E+01  0.57419269165E+02  0.76518111470E+02  0.12500000000E+03  0.80419002446E+02 0.  1.
        -24    1    1    2    0    0  0.24062816480E+01 -0.57419269165E+02 -0.76518111470E+02  0.12500000000E+03  0.80419002446E+02 0. -1.
</event>
<event>
 4    1  0.1590495E-001  0.1250000E+03  0.7546771E-02  0.1126479E+00
        -11   -1    0    0    0    0  0.00000000000E+00  0.00000000000E+00  0.12500000000E+03  0.12500000000E+03  0.00000000000E+00 0.  1.
         11   -1    0    0    0    0 -0.00000000000E+00 -0.00000000000E+00 -0.12500000000E+03  0.12500000000E+03  0.00000000000E+00 0. -1.
         24    1    1    2    0    0 -0.45959431544E+02 -0.83868021377E+02 -0.34160925016E+01  0.12500000000E+03  0.80419002446E+02 0. -1.
        -24    1    1    2    0    0  0.45959431544E+02  0.83868021377E+02  0.34160925016E+01  0.12500000000E+03  0.80419002446E+02 0.  1.
</event>
<event>
 4    1  0.1590495E-001  0.1250000E+03  0.7546771E-02  0.1126479E+00
        -11   -1    0    0    0    0  0.00000000000E+00  0.00000000000E+00  0.12500000000E+03  0.12500000000E+03  0.00000000000E+00 0.  1.
         11   -1    0    0    0    0 -0.00000000000E+00 -0.00000000000E+00 -0.12500000000E+03  0.12500000000E+03  0.00000000000E+00 0. -1.
         24    1    1    2    0    0 -0.67731322521E+01 -0.57150279773E+02  0.76457532310E+02  0.12500000000E+03  0.80419002446E+02 0.  1.
        -24    1    1    2    0    0  0.67731322521E+01  0.57150279773E+02 -0.76457532310E+02  0.12500000000E+03  0.80419002446E+02 0. -1.
</event>
<event>
 4    1  0.1590495E-001  0.1250000E+03  0.7546771E-02  0.1126479E+00
        -11   -1    0    0    0    0  0.00000000000E+00  0.00000000000E+00  0.12500000000E+03  0.12500000000E+03  0.00000000000E+00 0.  1.
         11   -1    0    0    0    0 -0.00000000000E+00 -0.00000000000E+00 -0.12500000000E+03  0.12500000000E+03  0.00000000000E+00 0. -1.
         24    1    1    2    0    0 -0.48317231002E+02 -0.43074773146E+01  0.82490453224E+02  0.12500000000E+03  0.80419002446E+02 0.  1.
        -24    1    1    2    0    0  0.48317231002E+02  0.43074773146E+01 -0.82490453224E+02  0.12500000000E+03  0.80419002446E+02 0. -1.
</event>
<event>
 4    1  0.1590495E-001  0.1250000E+03  0.7546771E-02  0.1126479E+00
        -11   -1    0    0    0    0  0.00000000000E+00  0.00000000000E+00  0.12500000000E+03  0.12500000000E+03  0.00000000000E+00 0.  1.
         11   -1    0    0    0    0 -0.00000000000E+00 -0.00000000000E+00 -0.12500000000E+03  0.12500000000E+03  0.00000000000E+00 0. -1.
         24    1    1    2    0    0 -0.93101956860E+02 -0.11620980899E+02  0.18835139430E+02  0.12500000000E+03  0.80419002446E+02 0.  1.
        -24    1    1    2    0    0  0.93101956860E+02  0.11620980899E+02 -0.18835139430E+02  0.12500000000E+03  0.80419002446E+02 0. -1.
</event>
<event>
 4    1  0.1590495E-001  0.1250000E+03  0.7546771E-02  0.1126479E+00
        -11   -1    0    0    0    0  0.00000000000E+00  0.00000000000E+00  0.12500000000E+03  0.12500000000E+03  0.00000000000E+00 0.  1.
         11   -1    0    0    0    0 -0.00000000000E+00 -0.00000000000E+00 -0.12500000000E+03  0.12500000000E+03  0.00000000000E+00 0. -1.
         24    1    1    2    0    0 -0.28467465443E+02 -0.21322529301E+02  0.88841078343E+02  0.12500000000E+03  0.80419002446E+02 0.  1.
        -24    1    1    2    0    0  0.28467465443E+02  0.21322529301E+02 -0.88841078343E+02  0.12500000000E+03  0.80419002446E+02 0. -1.
</event>
<event>
 4    1  0.1590495E-001  0.1250000E+03  0.7546771E-02  0.1126479E+00
        -11   -1    0    0    0    0  0.00000000000E+00  0.00000000000E+00  0.12500000000E+03  0.12500000000E+03  0.00000000000E+00 0.  1.
         11   -1    0    0    0    0 -0.00000000000E+00 -0.00000000000E+00 -0.12500000000E+03  0.12500000000E+03  0.00000000000E+00 0. -1.
         24    1    1    2    0    0 -0.36965311780E+01  0.70610738373E+02  0.64484442537E+02  0.12500000000E+03  0.80419002446E+02 0.  1.
        -24    1    1    2    0    0  0.36965311780E+01 -0.70610738373E+02 -0.64484442537E+02  0.12500000000E+03  0.80419002446E+02 0. -1.
</event>
<event>
 4    1  0.1590495E-001  0.1250000E+03  0.7546771E-02  0.1126479E+00
        -11   -1    0    0    0    0  0.00000000000E+00  0.00000000000E+00  0.12500000000E+03  0.12500000000E+03  0.00000000000E+00 0.  1.
         11   -1    0    0    0    0 -0.00000000000E+00 -0.00000000000E+00 -0.12500000000E+03  0.12500000000E+03  0.00000000000E+00 0. -1.
         24    1    1    2    0    0  0.13312351273E+02  0.47036055000E+02  0.82268918063E+02  0.12500000000E+03  0.80419002446E+02 0.  1.
        -24    1    1    2    0    0 -0.13312351273E+02 -0.47036055000E+02 -0.82268918063E+02  0.12500000000E+03  0.80419002446E+02 0. -1.
</event>
<event>
 4    1  0.1590495E-001  0.1250000E+03  0.7546771E-02  0.1126479E+00
        -11   -1    0    0    0    0  0.00000000000E+00  0.00000000000E+00  0.12500000000E+03  0.12500000000E+03  0.00000000000E+00 0.  1.
         11   -1    0    0    0    0 -0.00000000000E+00 -0.00000000000E+00 -0.12500000000E+03  0.12500000000E+03  0.00000000000E+00 0. -1.
         24    1    1    2    0    0  0.63849171544E+02  0.68522821482E+02 -0.19638998829E+02  0.12500000000E+03  0.80419002446E+02 0.  0.
        -24    1    1    2    0    0 -0.63849171544E+02 -0.68522821482E+02  0.19638998829E+02  0.12500000000E+03  0.80419002446E+02 0.  0.
</event>
<event>
 4    1  0.1590495E-001  0.1250000E+03  0.7546771E-02  0.1126479E+00
        -11   -1    0    0    0    0  0.00000000000E+00  0.00000000000E+00  0.12500000000E+03  0.12500000000E+03  0.00000000000E+00 0.  1.
         11   -1    0    0    0    0 -0.00000000000E+00 -0.00000000000E+00 -0.12500000000E+03  0.12500000000E+03  0.00000000000E+00 0. -1.
         24    1    1    2    0    0 -0.93432044404E+01  0.75086732011E+01  0.94942658501E+02  0.12500000000E+03  0.80419002446E+02 0.  1.
        -24    1    1    2    0    0  0.93432044404E+01 -0.75086732011E+01 -0.94942658501E+02  0.12500000000E+03  0.80419002446E+02 0. -1.
</event>
<event>
 4    1  0.1590495E-001  0.1250000E+03  0.7546771E-02  0.1126479E+00
        -11   -1    0    0    0    0  0.00000000000E+00  0.00000000000E+00  0.12500000000E+03  0.12500000000E+03  0.00000000000E+00 0.  1.
         11   -1    0    0    0    0 -0.00000000000E+00 -0.00000000000E+00 -0.12500000000E+03  0.12500000000E+03  0.00000000000E+00 0. -1.
         24    1    1    2    0    0 -0.72398486178E+02  0.57267104027E+01  0.62317317279E+02  0.12500000000E+03  0.80419002446E+02 0.  1.
        -24    1    1    2    0    0  0.72398486178E+02 -0.57267104027E+01 -0.62317317279E+02  0.12500000000E+03  0.80419002446E+02 0. -1.
</event>
<event>
 4    1  0.1590495E-001  0.1250000E+03  0.7546771E-02  0.1126479E+00
        -11   -1    0    0    0    0  0.00000000000E+00  0.00000000000E+00  0.12500000000E+03  0.12500000000E+03  0.00000000000E+00 0.  1.
         11   -1    0    0    0    0 -0.00000000000E+00 -0.00000000000E+00 -0.12500000000E+03  0.12500000000E+03  0.00000000000E+00 0. -1.
         24    1    1    2    0    0  0.38076450339E+02  0.24333565203E+02  0.84355471546E+02  0.12500000000E+03  0.80419002446E+02 0.  1.
        -24    1    1    2    0    0 -0.38076450339E+02 -0.24333565203E+02 -0.84355471546E+02  0.12500000000E+03  0.80419002446E+02 0. -1.
</event>
<event>
 4    1  0.1590495E-001  0.1250000E+03  0.7546771E-02  0.1126479E+00
        -11   -1    0    0    0    0  0.00000000000E+00  0.00000000000E+00  0.12500000000E+03  0.12500000000E+03  0.00000000000E+00 0.  1.
         11   -1    0    0    0    0 -0.00000000000E+00 -0.00000000000E+00 -0.12500000000E+03  0.12500000000E+03  0.00000000000E+00 0. -1.
         24    1    1    2    0    0 -0.22603000619E+02  0.91700284896E+02  0.15425503514E+02  0.12500000000E+03  0.80419002446E+02 0.  1.
        -24    1    1    2    0    0  0.22603000619E+02 -0.91700284896E+02 -0.15425503514E+02  0.12500000000E+03  0.80419002446E+02 0. -1.
</event>
<event>
 4    1  0.1590495E-001  0.1250000E+03  0.7546771E-02  0.1126479E+00
        -11   -1    0    0    0    0  0.00000000000E+00  0.00000000000E+00  0.12500000000E+03  0.12500000000E+03  0.00000000000E+00 0.  1.
         11   -1    0    0    0    0 -0.00000000000E+00 -0.00000000000E+00 -0.12500000000E+03  0.12500000000E+03  0.00000000000E+00 0. -1.
         24    1    1    2    0    0 -0.46048628757E+02  0.80676997738E+02 -0.22989777536E+02  0.12500000000E+03  0.80419002446E+02 0. -1.
        -24    1    1    2    0    0  0.46048628757E+02 -0.80676997738E+02  0.22989777536E+02  0.12500000000E+03  0.80419002446E+02 0.  1.
</event>
<event>
 4    1  0.1590495E-001  0.1250000E+03  0.7546771E-02  0.1126479E+00
        -11   -1    0    0    0    0  0.00000000000E+00  0.00000000000E+00  0.12500000000E+03  0.12500000000E+03  0.00000000000E+00 0.  1.
         11   -1    0    0    0    0 -0.00000000000E+00 -0.00000000000E+00 -0.12500000000E+03  0.12500000000E+03  0.00000000000E+00 0. -1.
         24    1    1    2    0    0  0.82177813228E+01 -0.30393610562E+02  0.90368581668E+02  0.12500000000E+03  0.80419002446E+02 0.  1.
        -24    1    1    2    0    0 -0.82177813228E+01  0.30393610562E+02 -0.90368581668E+02  0.12500000000E+03  0.80419002446E+02 0. -1.
</event>
<event>
 4    1  0.1590495E-001  0.1250000E+03  0.7546771E-02  0.1126479E+00
        -11   -1    0    0    0    0  0.00000000000E+00  0.00000000000E+00  0.12500000000E+03  0.12500000000E+03  0.00000000000E+00 0.  1.
         11   -1    0    0    0    0 -0.00000000000E+00 -0.00000000000E+00 -0.12500000000E+03  0.12500000000E+03  0.00000000000E+00 0. -1.
         24    1    1    2    0    0  0.43215139091E+02 -0.23377601332E+02  0.82120177514E+02  0.12500000000E+03  0.80419002446E+02 0.  1.
        -24    1    1    2    0    0 -0.43215139091E+02  0.23377601332E+02 -0.82120177514E+02  0.12500000000E+03  0.80419002446E+02 0. -1.
</event>
<event>
 4    1  0.1590495E-001  0.1250000E+03  0.7546771E-02  0.1126479E+00
        -11   -1    0    0    0    0  0.00000000000E+00  0.00000000000E+00  0.12500000000E+03  0.12500000000E+03  0.00000000000E+00 0.  1.
         11   -1    0    0    0    0 -0.00000000000E+00 -0.00000000000E+00 -0.12500000000E+03  0.12500000000E+03  0.00000000000E+00 0. -1.
         24    1    1    2    0    0 -0.10767427615E+02 -0.50772192924E+02  0.80399197595E+02  0.12500000000E+03  0.80419002446E+02 0.  1.
        -24    1    1    2    0    0  0.10767427615E+02  0.50772192924E+02 -0.80399197595E+02  0.12500000000E+03  0.80419002446E+02 0. -1.
</event>
<event>
 4    1  0.1590495E-001  0.1250000E+03  0.7546771E-02  0.1126479E+00
        -11   -1    0    0    0    0  0.00000000000E+00  0.00000000000E+00  0.12500000000E+03  0.12500000000E+03  0.00000000000E+00 0.  1.
         11   -1    0    0    0    0 -0.00000000000E+00 -0.00000000000E+00 -0.12500000000E+03  0.12500000000E+03  0.00000000000E+00 0. -1.
         24    1    1    2    0    0  0.33849016795E+02 -0.68138744962E+02  0.58044289492E+02  0.12500000000E+03  0.80419002446E+02 0.  1.
        -24    1    1    2    0    0 -0.33849016795E+02  0.68138744962E+02 -0.58044289492E+02  0.12500000000E+03  0.80419002446E+02 0. -1.
</event>
<event>
 4    1  0.1590495E-001  0.1250000E+03  0.7546771E-02  0.1126479E+00
        -11   -1    0    0    0    0  0.00000000000E+00  0.00000000000E+00  0.12500000000E+03  0.12500000000E+03  0.00000000000E+00 0.  1.
         11   -1    0    0    0    0 -0.00000000000E+00 -0.00000000000E+00 -0.12500000000E+03  0.12500000000E+03  0.00000000000E+00 0. -1.
         24    1    1    2    0    0  0.93509249027E+01 -0.47365891687E+02  0.82624551762E+02  0.12500000000E+03  0.80419002446E+02 0.  1.
        -24    1    1    2    0    0 -0.93509249027E+01  0.47365891687E+02 -0.82624551762E+02  0.12500000000E+03  0.80419002446E+02 0. -1.
</event>
<event>
 4    1  0.1590495E-001  0.1250000E+03  0.7546771E-02  0.1126479E+00
        -11   -1    0    0    0    0  0.00000000000E+00  0.00000000000E+00  0.12500000000E+03  0.12500000000E+03  0.00000000000E+00 0.  1.
         11   -1    0    0    0    0 -0.00000000000E+00 -0.00000000000E+00 -0.12500000000E+03  0.12500000000E+03  0.00000000000E+00 0. -1.
         24    1    1    2    0    0 -0.72364115614E+02  0.51144044522E+02  0.36131780014E+02  0.12500000000E+03  0.80419002446E+02 0.  1.
        -24    1    1    2    0    0  0.72364115614E+02 -0.51144044522E+02 -0.36131780014E+02  0.12500000000E+03  0.80419002446E+02 0. -1.
</event>
<event>
 4    1  0.1590495E-001  0.1250000E+03  0.7546771E-02  0.1126479E+00
        -11   -1    0    0    0    0  0.00000000000E+00  0.00000000000E+00  0.12500000000E+03  0.12500000000E+03  0.00000000000E+00 0.  1.
         11   -1    0    0    0    0 -0.00000000000E+00 -0.00000000000E+00 -0.12500000000E+03  0.12500000000E+03  0.00000000000E+00 0. -1.
         24    1    1    2    0    0 -0.76679106646E+02 -0.56696366152E+02  0.79762594509E+01  0.12500000000E+03  0.80419002446E+02 0. -1.
        -24    1    1    2    0    0  0.76679106646E+02  0.56696366152E+02 -0.79762594509E+01  0.12500000000E+03  0.80419002446E+02 0.  1.
</event>
<event>
 4    1  0.1590495E-001  0.1250000E+03  0.7546771E-02  0.1126479E+00
        -11   -1    0    0    0    0  0.00000000000E+00  0.00000000000E+00  0.12500000000E+03  0.12500000000E+03  0.00000000000E+00 0.  1.
         11   -1    0    0    0    0 -0.00000000000E+00 -0.00000000000E+00 -0.12500000000E+03  0.12500000000E+03  0.00000000000E+00 0. -1.
         24    1    1    2    0    0  0.74351069698E+01  0.78872074363E+01  0.95080466915E+02  0.12500000000E+03  0.80419002446E+02 0.  1.
        -24    1    1    2    0    0 -0.74351069698E+01 -0.78872074363E+01 -0.95080466915E+02  0.12500000000E+03  0.80419002446E+02 0.  0.
</event>
<event>
 4    1  0.1590495E-001  0.1250000E+03  0.7546771E-02  0.1126479E+00
        -11   -1    0    0    0    0  0.00000000000E+00  0.00000000000E+00  0.12500000000E+03  0.12500000000E+03  0.00000000000E+00 0.  1.
         11   -1    0    0    0    0 -0.00000000000E+00 -0.00000000000E+00 -0.12500000000E+03  0.12500000000E+03  0.00000000000E+00 0. -1.
         24    1    1    2    0    0 -0.64491768616E+02 -0.36297123330E+01  0.70607513869E+02  0.12500000000E+03  0.80419002446E+02 0.  0.
        -24    1    1    2    0    0  0.64491768616E+02  0.36297123330E+01 -0.70607513869E+02  0.12500000000E+03  0.80419002446E+02 0.  1.
</event>
<event>
 4    1  0.1590495E-001  0.1250000E+03  0.7546771E-02  0.1126479E+00
        -11   -1    0    0    0    0  0.00000000000E+00  0.00000000000E+00  0.12500000000E+03  0.12500000000E+03  0.00000000000E+00 0.  1.
         11   -1    0    0    0    0 -0.00000000000E+00 -0.00000000000E+00 -0.12500000000E+03  0.12500000000E+03  0.00000000000E+00 0. -1.
         24    1    1    2    0    0  0.48355366418E+02 -0.82261109991E+02 -0.72561950981E+01  0.12500000000E+03  0.80419002446E+02 0.  0.
        -24    1    1    2    0    0 -0.48355366418E+02  0.82261109991E+02  0.72561950981E+01  0.12500000000E+03  0.80419002446E+02 0. -1.
</event>
<event>
 4    1  0.1590495E-001  0.1250000E+03  0.7546771E-02  0.1126479E+00
        -11   -1    0    0    0    0  0.00000000000E+00  0.00000000000E+00  0.12500000000E+03  0.12500000000E+03  0.00000000000E+00 0.  1.
         11   -1    0    0    0    0 -0.00000000000E+00 -0.00000000000E+00 -0.12500000000E+03  0.12500000000E+03  0.00000000000E+00 0. -1.
         24    1    1    2    0    0  0.19730566362E+02 -0.36514905181E+02  0.86227318735E+02  0.12500000000E+03  0.80419002446E+02 0.  1.
        -24    1    1    2    0    0 -0.19730566362E+02  0.36514905181E+02 -0.86227318735E+02  0.12500000000E+03  0.80419002446E+02 0. -1.
</event>
<event>
 4    1  0.1590495E-001  0.1250000E+03  0.7546771E-02  0.1126479E+00
        -11   -1    0    0    0    0  0.00000000000E+00  0.00000000000E+00  0.12500000000E+03  0.12500000000E+03  0.00000000000E+00 0.  1.
         11   -1    0    0    0    0 -0.00000000000E+00 -0.00000000000E+00 -0.12500000000E+03  0.12500000000E+03  0.00000000000E+00 0. -1.
         24    1    1    2    0    0  0.25040883953E+02  0.50369599231E+02  0.77418613071E+02  0.12500000000E+03  0.80419002446E+02 0. -1.
        -24    1    1    2    0    0 -0.25040883953E+02 -0.50369599231E+02 -0.77418613071E+02  0.12500000000E+03  0.80419002446E+02 0.  0.
</event>
<event>
 4    1  0.1590495E-001  0.1250000E+03  0.7546771E-02  0.1126479E+00
        -11   -1    0    0    0    0  0.00000000000E+00  0.00000000000E+00  0.12500000000E+03  0.12500000000E+03  0.00000000000E+00 0.  1.
         11   -1    0    0    0    0 -0.00000000000E+00 -0.00000000000E+00 -0.12500000000E+03  0.12500000000E+03  0.00000000000E+00 0. -1.
         24    1    1    2    0    0 -0.39630505790E+02  0.28655762825E+02  0.82256029040E+02  0.12500000000E+03  0.80419002446E+02 0.  1.
        -24    1    1    2    0    0  0.39630505790E+02 -0.28655762825E+02 -0.82256029040E+02  0.12500000000E+03  0.80419002446E+02 0. -1.
</event>
<event>
 4    1  0.1590495E-001  0.1250000E+03  0.7546771E-02  0.1126479E+00
        -11   -1    0    0    0    0  0.00000000000E+00  0.00000000000E+00  0.12500000000E+03  0.12500000000E+03  0.00000000000E+00 0.  1.
         11   -1    0    0    0    0 -0.00000000000E+00 -0.00000000000E+00 -0.12500000000E+03  0.12500000000E+03  0.00000000000E+00 0. -1.
         24    1    1    2    0    0 -0.41456428768E+02 -0.11227206420E+02  0.85516655661E+02  0.12500000000E+03  0.80419002446E+02 0.  1.
        -24    1    1    2    0    0  0.41456428768E+02  0.11227206420E+02 -0.85516655661E+02  0.12500000000E+03  0.80419002446E+02 0. -1.
</event>
<event>
 4    1  0.1590495E-001  0.1250000E+03  0.7546771E-02  0.1126479E+00
        -11   -1    0    0    0    0  0.00000000000E+00  0.00000000000E+00  0.12500000000E+03  0.12500000000E+03  0.00000000000E+00 0.  1.
         11   -1    0    0    0    0 -0.00000000000E+00 -0.00000000000E+00 -0.12500000000E+03  0.12500000000E+03  0.00000000000E+00 0. -1.
         24    1    1    2    0    0 -0.34598405000E+02 -0.69809128362E+02  0.55564557178E+02  0.12500000000E+03  0.80419002446E+02 0.  1.
        -24    1    1    2    0    0  0.34598405000E+02  0.69809128362E+02 -0.55564557178E+02  0.12500000000E+03  0.80419002446E+02 0. -1.
</event>
<event>
 4    1  0.1590495E-001  0.1250000E+03  0.7546771E-02  0.1126479E+00
        -11   -1    0    0    0    0  0.00000000000E+00  0.00000000000E+00  0.12500000000E+03  0.12500000000E+03  0.00000000000E+00 0.  1.
         11   -1    0    0    0    0 -0.00000000000E+00 -0.00000000000E+00 -0.12500000000E+03  0.12500000000E+03  0.00000000000E+00 0. -1.
         24    1    1    2    0    0 -0.35618632956E+02  0.68264300440E+02  0.56825014891E+02  0.12500000000E+03  0.80419002446E+02 0.  1.
        -24    1    1    2    0    0  0.35618632956E+02 -0.68264300440E+02 -0.56825014891E+02  0.12500000000E+03  0.80419002446E+02 0. -1.
</event>
<event>
 4    1  0.1590495E-001  0.1250000E+03  0.7546771E-02  0.1126479E+00
        -11   -1    0    0    0    0  0.00000000000E+00  0.00000000000E+00  0.12500000000E+03  0.12500000000E+03  0.00000000000E+00 0.  1.
         11   -1    0    0    0    0 -0.00000000000E+00 -0.00000000000E+00 -0.12500000000E+03  0.12500000000E+03  0.00000000000E+00 0. -1.
         24    1    1    2    0    0 -0.42735817277E+02  0.51997695859E+02  0.68027006348E+02  0.12500000000E+03  0.80419002446E+02 0. -1.
        -24    1    1    2    0    0  0.42735817277E+02 -0.51997695859E+02 -0.68027006348E+02  0.12500000000E+03  0.80419002446E+02 0.  0.
</event>
<event>
 4    1  0.1590495E-001  0.1250000E+03  0.7546771E-02  0.1126479E+00
        -11   -1    0    0    0    0  0.00000000000E+00  0.00000000000E+00  0.12500000000E+03  0.12500000000E+03  0.00000000000E+00 0.  1.
         11   -1    0    0    0    0 -0.00000000000E+00 -0.00000000000E+00 -0.12500000000E+03  0.12500000000E+03  0.00000000000E+00 0. -1.
         24    1    1    2    0    0 -0.32428300205E+02 -0.60584968361E+02  0.66600683181E+02  0.12500000000E+03  0.80419002446E+02 0.  0.
        -24    1    1    2    0    0  0.32428300205E+02  0.60584968361E+02 -0.66600683181E+02  0.12500000000E+03  0.80419002446E+02 0.  1.
</event>
<event>
 4    1  0.1590495E-001  0.1250000E+03  0.7546771E-02  0.1126479E+00
        -11   -1    0    0    0    0  0.00000000000E+00  0.00000000000E+00  0.12500000000E+03  0.12500000000E+03  0.00000000000E+00 0.  1.
         11   -1    0    0    0    0 -0.00000000000E+00 -0.00000000000E+00 -0.12500000000E+03  0.12500000000E+03  0.00000000000E+00 0. -1.
         24    1    1    2    0    0 -0.70556332922E+02  0.47058143366E+02  0.44329663581E+02  0.12500000000E+03  0.80419002446E+02 0.  1.
        -24    1    1    2    0    0  0.70556332922E+02 -0.47058143366E+02 -0.44329663581E+02  0.12500000000E+03  0.80419002446E+02 0. -1.
</event>
<event>
 4    1  0.1590495E-001  0.1250000E+03  0.7546771E-02  0.1126479E+00
        -11   -1    0    0    0    0  0.00000000000E+00  0.00000000000E+00  0.12500000000E+03  0.12500000000E+03  0.00000000000E+00 0.  1.
         11   -1    0    0    0    0 -0.00000000000E+00 -0.00000000000E+00 -0.12500000000E+03  0.12500000000E+03  0.00000000000E+00 0. -1.
         24    1    1    2    0    0  0.58695687184E+02 -0.32378914250E+02  0.68294994426E+02  0.12500000000E+03  0.80419002446E+02 0.  1.
        -24    1    1    2    0    0 -0.58695687184E+02  0.32378914250E+02 -0.68294994426E+02  0.12500000000E+03  0.80419002446E+02 0. -1.
</event>
<event>
 4    1  0.1590495E-001  0.1250000E+03  0.7546771E-02  0.1126479E+00
        -11   -1    0    0    0    0  0.00000000000E+00  0.00000000000E+00  0.12500000000E+03  0.12500000000E+03  0.00000000000E+00 0.  1.
         11   -1    0    0    0    0 -0.00000000000E+00 -0.00000000000E+00 -0.12500000000E+03  0.12500000000E+03  0.00000000000E+00 0. -1.
         24    1    1    2    0    0 -0.88379049446E+02 -0.26683663953E+01  0.36603380793E+02  0.12500000000E+03  0.80419002446E+02 0.  1.
        -24    1    1    2    0    0  0.88379049446E+02  0.26683663953E+01 -0.36603380793E+02  0.12500000000E+03  0.80419002446E+02 0. -1.
</event>
<event>
 4    1  0.1590495E-001  0.1250000E+03  0.7546771E-02  0.1126479E+00
        -11   -1    0    0    0    0  0.00000000000E+00  0.00000000000E+00  0.12500000000E+03  0.12500000000E+03  0.00000000000E+00 0.  1.
         11   -1    0    0    0    0 -0.00000000000E+00 -0.00000000000E+00 -0.12500000000E+03  0.12500000000E+03  0.00000000000E+00 0. -1.
         24    1    1    2    0    0 -0.20454900480E+02 -0.22624704001E+02  0.90705588917E+02  0.12500000000E+03  0.80419002446E+02 0.  1.
        -24    1    1    2    0    0  0.20454900480E+02  0.22624704001E+02 -0.90705588917E+02  0.12500000000E+03  0.80419002446E+02 0. -1.
</event>
<event>
 4    1  0.1590495E-001  0.1250000E+03  0.7546771E-02  0.1126479E+00
        -11   -1    0    0    0    0  0.00000000000E+00  0.00000000000E+00  0.12500000000E+03  0.12500000000E+03  0.00000000000E+00 0.  1.
         11   -1    0    0    0    0 -0.00000000000E+00 -0.00000000000E+00 -0.12500000000E+03  0.12500000000E+03  0.00000000000E+00 0. -1.
         24    1    1    2    0    0  0.61431716404E+02 -0.15279705998E+02  0.71766697359E+02  0.12500000000E+03  0.80419002446E+02 0. -1.
        -24    1    1    2    0    0 -0.61431716404E+02  0.15279705998E+02 -0.71766697359E+02  0.12500000000E+03  0.80419002446E+02 0.  0.
</event>
<event>
 4    1  0.1590495E-001  0.1250000E+03  0.7546771E-02  0.1126479E+00
        -11   -1    0    0    0    0  0.00000000000E+00  0.00000000000E+00  0.12500000000E+03  0.12500000000E+03  0.00000000000E+00 0.  1.
         11   -1    0    0    0    0 -0.00000000000E+00 -0.00000000000E+00 -0.12500000000E+03  0.12500000000E+03  0.00000000000E+00 0. -1.
         24    1    1    2    0    0 -0.21920427843E+02  0.35334401356E+01  0.93084873581E+02  0.12500000000E+03  0.80419002446E+02 0.  1.
        -24    1    1    2    0    0  0.21920427843E+02 -0.35334401356E+01 -0.93084873581E+02  0.12500000000E+03  0.80419002446E+02 0. -1.
</event>
<event>
 4    1  0.1590495E-001  0.1250000E+03  0.7546771E-02  0.1126479E+00
        -11   -1    0    0    0    0  0.00000000000E+00  0.00000000000E+00  0.12500000000E+03  0.12500000000E+03  0.00000000000E+00 0.  1.
         11   -1    0    0    0    0 -0.00000000000E+00 -0.00000000000E+00 -0.12500000000E+03  0.12500000000E+03  0.00000000000E+00 0. -1.
         24    1    1    2    0    0 -0.23561502152E+02  0.32309395861E+02  0.86941029445E+02  0.12500000000E+03  0.80419002446E+02 0.  1.
        -24    1    1    2    0    0  0.23561502152E+02 -0.32309395861E+02 -0.86941029445E+02  0.12500000000E+03  0.80419002446E+02 0. -1.
</event>
<event>
 4    1  0.1590495E-001  0.1250000E+03  0.7546771E-02  0.1126479E+00
        -11   -1    0    0    0    0  0.00000000000E+00  0.00000000000E+00  0.12500000000E+03  0.12500000000E+03  0.00000000000E+00 0.  1.
         11   -1    0    0    0    0 -0.00000000000E+00 -0.00000000000E+00 -0.12500000000E+03  0.12500000000E+03  0.00000000000E+00 0. -1.
         24    1    1    2    0    0  0.33602644495E+02  0.31429276066E+02  0.83909754704E+02  0.12500000000E+03  0.80419002446E+02 0.  1.
        -24    1    1    2    0    0 -0.33602644495E+02 -0.31429276066E+02 -0.83909754704E+02  0.12500000000E+03  0.80419002446E+02 0. -1.
</event>
<event>
 4    1  0.1590495E-001  0.1250000E+03  0.7546771E-02  0.1126479E+00
        -11   -1    0    0    0    0  0.00000000000E+00  0.00000000000E+00  0.12500000000E+03  0.12500000000E+03  0.00000000000E+00 0.  1.
         11   -1    0    0    0    0 -0.00000000000E+00 -0.00000000000E+00 -0.12500000000E+03  0.12500000000E+03  0.00000000000E+00 0. -1.
         24    1    1    2    0    0  0.35292118710E+02 -0.79540177175E+02  0.39819726488E+02  0.12500000000E+03  0.80419002446E+02 0.  1.
        -24    1    1    2    0    0 -0.35292118710E+02  0.79540177175E+02 -0.39819726488E+02  0.12500000000E+03  0.80419002446E+02 0. -1.
</event>
<event>
 4    1  0.1590495E-001  0.1250000E+03  0.7546771E-02  0.1126479E+00
        -11   -1    0    0    0    0  0.00000000000E+00  0.00000000000E+00  0.12500000000E+03  0.12500000000E+03  0.00000000000E+00 0.  1.
         11   -1    0    0    0    0 -0.00000000000E+00 -0.00000000000E+00 -0.12500000000E+03  0.12500000000E+03  0.00000000000E+00 0. -1.
         24    1    1    2    0    0 -0.68171977694E+02 -0.67088874517E+02 -0.30738280535E+01  0.12500000000E+03  0.80419002446E+02 0.  1.
        -24    1    1    2    0    0  0.68171977694E+02  0.67088874517E+02  0.30738280535E+01  0.12500000000E+03  0.80419002446E+02 0.  0.
</event>
<event>
 4    1  0.1590495E-001  0.1250000E+03  0.7546771E-02  0.1126479E+00
        -11   -1    0    0    0    0  0.00000000000E+00  0.00000000000E+00  0.12500000000E+03  0.12500000000E+03  0.00000000000E+00 0.  1.
         11   -1    0    0    0    0 -0.00000000000E+00 -0.00000000000E+00 -0.12500000000E+03  0.12500000000E+03  0.00000000000E+00 0. -1.
         24    1    1    2    0    0 -0.37796228206E+01 -0.18565355013E+02  0.93802058027E+02  0.12500000000E+03  0.80419002446E+02 0.  1.
        -24    1    1    2    0    0  0.37796228206E+01  0.18565355013E+02 -0.93802058027E+02  0.12500000000E+03  0.80419002446E+02 0. -1.
</event>
<event>
 4    1  0.1590495E-001  0.1250000E+03  0.7546771E-02  0.1126479E+00
        -11   -1    0    0    0    0  0.00000000000E+00  0.00000000000E+00  0.12500000000E+03  0.12500000000E+03  0.00000000000E+00 0.  1.
         11   -1    0    0    0    0 -0.00000000000E+00 -0.00000000000E+00 -0.12500000000E+03  0.12500000000E+03  0.00000000000E+00 0. -1.
         24    1    1    2    0    0  0.41431403703E+02  0.62290359876E+02 -0.59675236903E+02  0.12500000000E+03  0.80419002446E+02 0.  0.
        -24    1    1    2    0    0 -0.41431403703E+02 -0.62290359876E+02  0.59675236903E+02  0.12500000000E+03  0.80419002446E+02 0.  0.
</event>
<event>
 4    1  0.1590495E-001  0.1250000E+03  0.7546771E-02  0.1126479E+00
        -11   -1    0    0    0    0  0.00000000000E+00  0.00000000000E+00  0.12500000000E+03  0.12500000000E+03  0.00000000000E+00 0.  1.
         11   -1    0    0    0    0 -0.00000000000E+00 -0.00000000000E+00 -0.12500000000E+03  0.12500000000E+03  0.00000000000E+00 0. -1.
         24    1    1    2    0    0 -0.53055414121E+02  0.14044672074E+02  0.78394223412E+02  0.12500000000E+03  0.80419002446E+02 0.  1.
        -24    1    1    2    0    0  0.53055414121E+02 -0.14044672074E+02 -0.78394223412E+02  0.12500000000E+03  0.80419002446E+02 0. -1.
</event>
<event>
 4    1  0.1590495E-001  0.1250000E+03  0.7546771E-02  0.1126479E+00
        -11   -1    0    0    0    0  0.00000000000E+00  0.00000000000E+00  0.12500000000E+03  0.12500000000E+03  0.00000000000E+00 0.  1.
         11   -1    0    0    0    0 -0.00000000000E+00 -0.00000000000E+00 -0.12500000000E+03  0.12500000000E+03  0.00000000000E+00 0. -1.
         24    1    1    2    0    0  0.18184704669E+02 -0.16135044031E+02  0.92556798323E+02  0.12500000000E+03  0.80419002446E+02 0.  1.
        -24    1    1    2    0    0 -0.18184704669E+02  0.16135044031E+02 -0.92556798323E+02  0.12500000000E+03  0.80419002446E+02 0. -1.
</event>
<event>
 4    1  0.1590495E-001  0.1250000E+03  0.7546771E-02  0.1126479E+00
        -11   -1    0    0    0    0  0.00000000000E+00  0.00000000000E+00  0.12500000000E+03  0.12500000000E+03  0.00000000000E+00 0.  1.
         11   -1    0    0    0    0 -0.00000000000E+00 -0.00000000000E+00 -0.12500000000E+03  0.12500000000E+03  0.00000000000E+00 0. -1.
         24    1    1    2    0    0 -0.10338789141E+02 -0.37618207453E+02  0.87382858461E+02  0.12500000000E+03  0.80419002446E+02 0.  1.
        -24    1    1    2    0    0  0.10338789141E+02  0.37618207453E+02 -0.87382858461E+02  0.12500000000E+03  0.80419002446E+02 0. -1.
</event>
<event>
 4    1  0.1590495E-001  0.1250000E+03  0.7546771E-02  0.1126479E+00
        -11   -1    0    0    0    0  0.00000000000E+00  0.00000000000E+00  0.12500000000E+03  0.12500000000E+03  0.00000000000E+00 0.  1.
         11   -1    0    0    0    0 -0.00000000000E+00 -0.00000000000E+00 -0.12500000000E+03  0.12500000000E+03  0.00000000000E+00 0. -1.
         24    1    1    2    0    0  0.35514904360E+01  0.75930096255E+01  0.95328469862E+02  0.12500000000E+03  0.80419002446E+02 0.  1.
        -24    1    1    2    0    0 -0.35514904360E+01 -0.75930096255E+01 -0.95328469862E+02  0.12500000000E+03  0.80419002446E+02 0. -1.
</event>
<event>
 4    1  0.1590495E-001  0.1250000E+03  0.7546771E-02  0.1126479E+00
        -11   -1    0    0    0    0  0.00000000000E+00  0.00000000000E+00  0.12500000000E+03  0.12500000000E+03  0.00000000000E+00 0.  1.
         11   -1    0    0    0    0 -0.00000000000E+00 -0.00000000000E+00 -0.12500000000E+03  0.12500000000E+03  0.00000000000E+00 0. -1.
         24    1    1    2    0    0 -0.13983952871E+02 -0.33570798415E+02  0.88516860549E+02  0.12500000000E+03  0.80419002446E+02 0.  0.
        -24    1    1    2    0    0  0.13983952871E+02  0.33570798415E+02 -0.88516860549E+02  0.12500000000E+03  0.80419002446E+02 0. -1.
</event>
<event>
 4    1  0.1590495E-001  0.1250000E+03  0.7546771E-02  0.1126479E+00
        -11   -1    0    0    0    0  0.00000000000E+00  0.00000000000E+00  0.12500000000E+03  0.12500000000E+03  0.00000000000E+00 0.  1.
         11   -1    0    0    0    0 -0.00000000000E+00 -0.00000000000E+00 -0.12500000000E+03  0.12500000000E+03  0.00000000000E+00 0. -1.
         24    1    1    2    0    0 -0.28541277626E+02 -0.26986759959E+02  0.87263361751E+02  0.12500000000E+03  0.80419002446E+02 0.  1.
        -24    1    1    2    0    0  0.28541277626E+02  0.26986759959E+02 -0.87263361751E+02  0.12500000000E+03  0.80419002446E+02 0.  1.
</event>
<event>
 4    1  0.1590495E-001  0.1250000E+03  0.7546771E-02  0.1126479E+00
        -11   -1    0    0    0    0  0.00000000000E+00  0.00000000000E+00  0.12500000000E+03  0.12500000000E+03  0.00000000000E+00 0.  1.
         11   -1    0    0    0    0 -0.00000000000E+00 -0.00000000000E+00 -0.12500000000E+03  0.12500000000E+03  0.00000000000E+00 0. -1.
         24    1    1    2    0    0 -0.61697218563E+02 -0.66327606842E+02 -0.30852647178E+02  0.12500000000E+03  0.80419002446E+02 0.  0.
        -24    1    1    2    0    0  0.61697218563E+02  0.66327606842E+02  0.30852647178E+02  0.12500000000E+03  0.80419002446E+02 0.  0.
</event>
<event>
 4    1  0.1590495E-001  0.1250000E+03  0.7546771E-02  0.1126479E+00
        -11   -1    0    0    0    0  0.00000000000E+00  0.00000000000E+00  0.12500000000E+03  0.12500000000E+03  0.00000000000E+00 0.  1.
         11   -1    0    0    0    0 -0.00000000000E+00 -0.00000000000E+00 -0.12500000000E+03  0.12500000000E+03  0.00000000000E+00 0. -1.
         24    1    1    2    0    0 -0.64543948644E+02 -0.62621980530E+00  0.70650340324E+02  0.12500000000E+03  0.80419002446E+02 0.  1.
        -24    1    1    2    0    0  0.64543948644E+02  0.62621980530E+00 -0.70650340324E+02  0.12500000000E+03  0.80419002446E+02 0. -1.
</event>
<event>
 4    1  0.1590495E-001  0.1250000E+03  0.7546771E-02  0.1126479E+00
        -11   -1    0    0    0    0  0.00000000000E+00  0.00000000000E+00  0.12500000000E+03  0.12500000000E+03  0.00000000000E+00 0.  1.
         11   -1    0    0    0    0 -0.00000000000E+00 -0.00000000000E+00 -0.12500000000E+03  0.12500000000E+03  0.00000000000E+00 0. -1.
         24    1    1    2    0    0 -0.43590766153E+02  0.26374875392E+02  0.81006142359E+02  0.12500000000E+03  0.80419002446E+02 0.  1.
        -24    1    1    2    0    0  0.43590766153E+02 -0.26374875392E+02 -0.81006142359E+02  0.12500000000E+03  0.80419002446E+02 0. -1.
</event>
<event>
 4    1  0.1590495E-001  0.1250000E+03  0.7546771E-02  0.1126479E+00
        -11   -1    0    0    0    0  0.00000000000E+00  0.00000000000E+00  0.12500000000E+03  0.12500000000E+03  0.00000000000E+00 0.  1.
         11   -1    0    0    0    0 -0.00000000000E+00 -0.00000000000E+00 -0.12500000000E+03  0.12500000000E+03  0.00000000000E+00 0. -1.
         24    1    1    2    0    0 -0.15111323327E+02  0.49180777176E+02  0.80688804114E+02  0.12500000000E+03  0.80419002446E+02 0.  1.
        -24    1    1    2    0    0  0.15111323327E+02 -0.49180777176E+02 -0.80688804114E+02  0.12500000000E+03  0.80419002446E+02 0. -1.
</event>
<event>
 4    1  0.1590495E-001  0.1250000E+03  0.7546771E-02  0.1126479E+00
        -11   -1    0    0    0    0  0.00000000000E+00  0.00000000000E+00  0.12500000000E+03  0.12500000000E+03  0.00000000000E+00 0.  1.
         11   -1    0    0    0    0 -0.00000000000E+00 -0.00000000000E+00 -0.12500000000E+03  0.12500000000E+03  0.00000000000E+00 0. -1.
         24    1    1    2    0    0 -0.13849148303E+02 -0.44697802540E+02  0.83475095597E+02  0.12500000000E+03  0.80419002446E+02 0.  1.
        -24    1    1    2    0    0  0.13849148303E+02  0.44697802540E+02 -0.83475095597E+02  0.12500000000E+03  0.80419002446E+02 0. -1.
</event>
<event>
 4    1  0.1590495E-001  0.1250000E+03  0.7546771E-02  0.1126479E+00
        -11   -1    0    0    0    0  0.00000000000E+00  0.00000000000E+00  0.12500000000E+03  0.12500000000E+03  0.00000000000E+00 0.  1.
         11   -1    0    0    0    0 -0.00000000000E+00 -0.00000000000E+00 -0.12500000000E+03  0.12500000000E+03  0.00000000000E+00 0. -1.
         24    1    1    2    0    0  0.63009693087E+02 -0.18602405152E+02  0.69580982641E+02  0.12500000000E+03  0.80419002446E+02 0.  0.
        -24    1    1    2    0    0 -0.63009693087E+02  0.18602405152E+02 -0.69580982641E+02  0.12500000000E+03  0.80419002446E+02 0.  1.
</event>
<event>
 4    1  0.1590495E-001  0.1250000E+03  0.7546771E-02  0.1126479E+00
        -11   -1    0    0    0    0  0.00000000000E+00  0.00000000000E+00  0.12500000000E+03  0.12500000000E+03  0.00000000000E+00 0.  1.
         11   -1    0    0    0    0 -0.00000000000E+00 -0.00000000000E+00 -0.12500000000E+03  0.12500000000E+03  0.00000000000E+00 0. -1.
         24    1    1    2    0    0 -0.29804378452E+02 -0.27759906002E+02  0.86596020055E+02  0.12500000000E+03  0.80419002446E+02 0.  1.
        -24    1    1    2    0    0  0.29804378452E+02  0.27759906002E+02 -0.86596020055E+02  0.12500000000E+03  0.80419002446E+02 0. -1.
</event>
<event>
 4    1  0.1590495E-001  0.1250000E+03  0.7546771E-02  0.1126479E+00
        -11   -1    0    0    0    0  0.00000000000E+00  0.00000000000E+00  0.12500000000E+03  0.12500000000E+03  0.00000000000E+00 0.  1.
         11   -1    0    0    0    0 -0.00000000000E+00 -0.00000000000E+00 -0.12500000000E+03  0.12500000000E+03  0.00000000000E+00 0. -1.
         24    1    1    2    0    0 -0.64872545037E+00  0.62382306632E+02  0.72565908113E+02  0.12500000000E+03  0.80419002446E+02 0.  1.
        -24    1    1    2    0    0  0.64872545037E+00 -0.62382306632E+02 -0.72565908113E+02  0.12500000000E+03  0.80419002446E+02 0. -1.
</event>
<event>
 4    1  0.1590495E-001  0.1250000E+03  0.7546771E-02  0.1126479E+00
        -11   -1    0    0    0    0  0.00000000000E+00  0.00000000000E+00  0.12500000000E+03  0.12500000000E+03  0.00000000000E+00 0.  1.
         11   -1    0    0    0    0 -0.00000000000E+00 -0.00000000000E+00 -0.12500000000E+03  0.12500000000E+03  0.00000000000E+00 0. -1.
         24    1    1    2    0    0  0.23692665353E+02 -0.73130534311E-01  0.92716968814E+02  0.12500000000E+03  0.80419002446E+02 0.  1.
        -24    1    1    2    0    0 -0.23692665353E+02  0.73130534311E-01 -0.92716968814E+02  0.12500000000E+03  0.80419002446E+02 0. -1.
</event>
<event>
 4    1  0.1590495E-001  0.1250000E+03  0.7546771E-02  0.1126479E+00
        -11   -1    0    0    0    0  0.00000000000E+00  0.00000000000E+00  0.12500000000E+03  0.12500000000E+03  0.00000000000E+00 0.  1.
         11   -1    0    0    0    0 -0.00000000000E+00 -0.00000000000E+00 -0.12500000000E+03  0.12500000000E+03  0.00000000000E+00 0. -1.
         24    1    1    2    0    0  0.48336511517E+02 -0.10162423301E+01  0.82585307116E+02  0.12500000000E+03  0.80419002446E+02 0.  1.
        -24    1    1    2    0    0 -0.48336511517E+02  0.10162423301E+01 -0.82585307116E+02  0.12500000000E+03  0.80419002446E+02 0. -1.
</event>
<event>
 4    1  0.1590495E-001  0.1250000E+03  0.7546771E-02  0.1126479E+00
        -11   -1    0    0    0    0  0.00000000000E+00  0.00000000000E+00  0.12500000000E+03  0.12500000000E+03  0.00000000000E+00 0.  1.
         11   -1    0    0    0    0 -0.00000000000E+00 -0.00000000000E+00 -0.12500000000E+03  0.12500000000E+03  0.00000000000E+00 0. -1.
         24    1    1    2    0    0 -0.72117228189E+02  0.31416602631E+02  0.54496665247E+02  0.12500000000E+03  0.80419002446E+02 0. -1.
        -24    1    1    2    0    0  0.72117228189E+02 -0.31416602631E+02 -0.54496665247E+02  0.12500000000E+03  0.80419002446E+02 0.  1.
</event>
<event>
 4    1  0.1590495E-001  0.1250000E+03  0.7546771E-02  0.1126479E+00
        -11   -1    0    0    0    0  0.00000000000E+00  0.00000000000E+00  0.12500000000E+03  0.12500000000E+03  0.00000000000E+00 0.  1.
         11   -1    0    0    0    0 -0.00000000000E+00 -0.00000000000E+00 -0.12500000000E+03  0.12500000000E+03  0.00000000000E+00 0. -1.
         24    1    1    2    0    0  0.47493721714E+02 -0.99192594398E+01  0.82484778811E+02  0.12500000000E+03  0.80419002446E+02 0.  1.
        -24    1    1    2    0    0 -0.47493721714E+02  0.99192594398E+01 -0.82484778811E+02  0.12500000000E+03  0.80419002446E+02 0. -1.
</event>
<event>
 4    1  0.1590495E-001  0.1250000E+03  0.7546771E-02  0.1126479E+00
        -11   -1    0    0    0    0  0.00000000000E+00  0.00000000000E+00  0.12500000000E+03  0.12500000000E+03  0.00000000000E+00 0.  1.
         11   -1    0    0    0    0 -0.00000000000E+00 -0.00000000000E+00 -0.12500000000E+03  0.12500000000E+03  0.00000000000E+00 0. -1.
         24    1    1    2    0    0 -0.76033411379E+02 -0.52633241850E+02 -0.24626129458E+02  0.12500000000E+03  0.80419002446E+02 0.  0.
        -24    1    1    2    0    0  0.76033411379E+02  0.52633241850E+02  0.24626129458E+02  0.12500000000E+03  0.80419002446E+02 0. -1.
</event>
<event>
 4    1  0.1590495E-001  0.1250000E+03  0.7546771E-02  0.1126479E+00
        -11   -1    0    0    0    0  0.00000000000E+00  0.00000000000E+00  0.12500000000E+03  0.12500000000E+03  0.00000000000E+00 0.  1.
         11   -1    0    0    0    0 -0.00000000000E+00 -0.00000000000E+00 -0.12500000000E+03  0.12500000000E+03  0.00000000000E+00 0. -1.
         24    1    1    2    0    0  0.73443917129E+02 -0.33956158356E+02  0.51095541802E+02  0.12500000000E+03  0.80419002446E+02 0.  1.
        -24    1    1    2    0    0 -0.73443917129E+02  0.33956158356E+02 -0.51095541802E+02  0.12500000000E+03  0.80419002446E+02 0. -1.
</event>
<event>
 4    1  0.1590495E-001  0.1250000E+03  0.7546771E-02  0.1126479E+00
        -11   -1    0    0    0    0  0.00000000000E+00  0.00000000000E+00  0.12500000000E+03  0.12500000000E+03  0.00000000000E+00 0.  1.
         11   -1    0    0    0    0 -0.00000000000E+00 -0.00000000000E+00 -0.12500000000E+03  0.12500000000E+03  0.00000000000E+00 0. -1.
         24    1    1    2    0    0  0.17570586373E+01  0.27570732151E+02  0.91621785178E+02  0.12500000000E+03  0.80419002446E+02 0.  1.
        -24    1    1    2    0    0 -0.17570586373E+01 -0.27570732151E+02 -0.91621785178E+02  0.12500000000E+03  0.80419002446E+02 0. -1.
</event>
<event>
 4    1  0.1590495E-001  0.1250000E+03  0.7546771E-02  0.1126479E+00
        -11   -1    0    0    0    0  0.00000000000E+00  0.00000000000E+00  0.12500000000E+03  0.12500000000E+03  0.00000000000E+00 0.  1.
         11   -1    0    0    0    0 -0.00000000000E+00 -0.00000000000E+00 -0.12500000000E+03  0.12500000000E+03  0.00000000000E+00 0. -1.
         24    1    1    2    0    0  0.37994118460E+02 -0.22003330999E+02  0.85029903169E+02  0.12500000000E+03  0.80419002446E+02 0.  1.
        -24    1    1    2    0    0 -0.37994118460E+02  0.22003330999E+02 -0.85029903169E+02  0.12500000000E+03  0.80419002446E+02 0. -1.
</event>
<event>
 4    1  0.1590495E-001  0.1250000E+03  0.7546771E-02  0.1126479E+00
        -11   -1    0    0    0    0  0.00000000000E+00  0.00000000000E+00  0.12500000000E+03  0.12500000000E+03  0.00000000000E+00 0.  1.
         11   -1    0    0    0    0 -0.00000000000E+00 -0.00000000000E+00 -0.12500000000E+03  0.12500000000E+03  0.00000000000E+00 0. -1.
         24    1    1    2    0    0 -0.53555502682E+01  0.40254328578E+02  0.86652704272E+02  0.12500000000E+03  0.80419002446E+02 0.  1.
        -24    1    1    2    0    0  0.53555502682E+01 -0.40254328578E+02 -0.86652704272E+02  0.12500000000E+03  0.80419002446E+02 0. -1.
</event>
<event>
 4    1  0.1590495E-001  0.1250000E+03  0.7546771E-02  0.1126479E+00
        -11   -1    0    0    0    0  0.00000000000E+00  0.00000000000E+00  0.12500000000E+03  0.12500000000E+03  0.00000000000E+00 0.  1.
         11   -1    0    0    0    0 -0.00000000000E+00 -0.00000000000E+00 -0.12500000000E+03  0.12500000000E+03  0.00000000000E+00 0. -1.
         24    1    1    2    0    0 -0.72831792501E+02 -0.51056907150E+01  0.61864739303E+02  0.12500000000E+03  0.80419002446E+02 0.  1.
        -24    1    1    2    0    0  0.72831792501E+02  0.51056907150E+01 -0.61864739303E+02  0.12500000000E+03  0.80419002446E+02 0. -1.
</event>
<event>
 4    1  0.1590495E-001  0.1250000E+03  0.7546771E-02  0.1126479E+00
        -11   -1    0    0    0    0  0.00000000000E+00  0.00000000000E+00  0.12500000000E+03  0.12500000000E+03  0.00000000000E+00 0.  1.
         11   -1    0    0    0    0 -0.00000000000E+00 -0.00000000000E+00 -0.12500000000E+03  0.12500000000E+03  0.00000000000E+00 0. -1.
         24    1    1    2    0    0  0.10826311552E+01  0.12670336065E+02  0.94847638555E+02  0.12500000000E+03  0.80419002446E+02 0.  1.
        -24    1    1    2    0    0 -0.10826311552E+01 -0.12670336065E+02 -0.94847638555E+02  0.12500000000E+03  0.80419002446E+02 0. -1.
</event>
<event>
 4    1  0.1590495E-001  0.1250000E+03  0.7546771E-02  0.1126479E+00
        -11   -1    0    0    0    0  0.00000000000E+00  0.00000000000E+00  0.12500000000E+03  0.12500000000E+03  0.00000000000E+00 0.  1.
         11   -1    0    0    0    0 -0.00000000000E+00 -0.00000000000E+00 -0.12500000000E+03  0.12500000000E+03  0.00000000000E+00 0. -1.
         24    1    1    2    0    0 -0.71827015829E+02  0.39351498720E+00  0.63233764625E+02  0.12500000000E+03  0.80419002446E+02 0.  1.
        -24    1    1    2    0    0  0.71827015829E+02 -0.39351498720E+00 -0.63233764625E+02  0.12500000000E+03  0.80419002446E+02 0. -1.
</event>
<event>
 4    1  0.1590495E-001  0.1250000E+03  0.7546771E-02  0.1126479E+00
        -11   -1    0    0    0    0  0.00000000000E+00  0.00000000000E+00  0.12500000000E+03  0.12500000000E+03  0.00000000000E+00 0.  1.
         11   -1    0    0    0    0 -0.00000000000E+00 -0.00000000000E+00 -0.12500000000E+03  0.12500000000E+03  0.00000000000E+00 0. -1.
         24    1    1    2    0    0  0.17995888100E+02 -0.89552448681E+02  0.28535784417E+02  0.12500000000E+03  0.80419002446E+02 0.  0.
        -24    1    1    2    0    0 -0.17995888100E+02  0.89552448681E+02 -0.28535784417E+02  0.12500000000E+03  0.80419002446E+02 0. -1.
</event>
<event>
 4    1  0.1590495E-001  0.1250000E+03  0.7546771E-02  0.1126479E+00
        -11   -1    0    0    0    0  0.00000000000E+00  0.00000000000E+00  0.12500000000E+03  0.12500000000E+03  0.00000000000E+00 0.  1.
         11   -1    0    0    0    0 -0.00000000000E+00 -0.00000000000E+00 -0.12500000000E+03  0.12500000000E+03  0.00000000000E+00 0. -1.
         24    1    1    2    0    0  0.28810555369E+02  0.26405715706E+02  0.87352585096E+02  0.12500000000E+03  0.80419002446E+02 0.  1.
        -24    1    1    2    0    0 -0.28810555369E+02 -0.26405715706E+02 -0.87352585096E+02  0.12500000000E+03  0.80419002446E+02 0. -1.
</event>
<event>
 4    1  0.1590495E-001  0.1250000E+03  0.7546771E-02  0.1126479E+00
        -11   -1    0    0    0    0  0.00000000000E+00  0.00000000000E+00  0.12500000000E+03  0.12500000000E+03  0.00000000000E+00 0.  1.
         11   -1    0    0    0    0 -0.00000000000E+00 -0.00000000000E+00 -0.12500000000E+03  0.12500000000E+03  0.00000000000E+00 0. -1.
         24    1    1    2    0    0 -0.45478073263E+02 -0.47866434856E+02  0.69270002975E+02  0.12500000000E+03  0.80419002446E+02 0.  1.
        -24    1    1    2    0    0  0.45478073263E+02  0.47866434856E+02 -0.69270002975E+02  0.12500000000E+03  0.80419002446E+02 0. -1.
</event>
<event>
 4    1  0.1590495E-001  0.1250000E+03  0.7546771E-02  0.1126479E+00
        -11   -1    0    0    0    0  0.00000000000E+00  0.00000000000E+00  0.12500000000E+03  0.12500000000E+03  0.00000000000E+00 0.  1.
         11   -1    0    0    0    0 -0.00000000000E+00 -0.00000000000E+00 -0.12500000000E+03  0.12500000000E+03  0.00000000000E+00 0. -1.
         24    1    1    2    0    0  0.31983195170E+02 -0.44281950164E+02  0.78574602526E+02  0.12500000000E+03  0.80419002446E+02 0.  1.
        -24    1    1    2    0    0 -0.31983195170E+02  0.44281950164E+02 -0.78574602526E+02  0.12500000000E+03  0.80419002446E+02 0. -1.
</event>
<event>
 4    1  0.1590495E-001  0.1250000E+03  0.7546771E-02  0.1126479E+00
        -11   -1    0    0    0    0  0.00000000000E+00  0.00000000000E+00  0.12500000000E+03  0.12500000000E+03  0.00000000000E+00 0.  1.
         11   -1    0    0    0    0 -0.00000000000E+00 -0.00000000000E+00 -0.12500000000E+03  0.12500000000E+03  0.00000000000E+00 0. -1.
         24    1    1    2    0    0  0.45793515814E+02 -0.12628119492E+02  0.83073874071E+02  0.12500000000E+03  0.80419002446E+02 0.  1.
        -24    1    1    2    0    0 -0.45793515814E+02  0.12628119492E+02 -0.83073874071E+02  0.12500000000E+03  0.80419002446E+02 0. -1.
</event>
<event>
 4    1  0.1590495E-001  0.1250000E+03  0.7546771E-02  0.1126479E+00
        -11   -1    0    0    0    0  0.00000000000E+00  0.00000000000E+00  0.12500000000E+03  0.12500000000E+03  0.00000000000E+00 0.  1.
         11   -1    0    0    0    0 -0.00000000000E+00 -0.00000000000E+00 -0.12500000000E+03  0.12500000000E+03  0.00000000000E+00 0. -1.
         24    1    1    2    0    0 -0.87643639308E+02  0.32480266840E+02  0.20528243969E+02  0.12500000000E+03  0.80419002446E+02 0.  0.
        -24    1    1    2    0    0  0.87643639308E+02 -0.32480266840E+02 -0.20528243969E+02  0.12500000000E+03  0.80419002446E+02 0.  0.
</event>
<event>
 4    1  0.1590495E-001  0.1250000E+03  0.7546771E-02  0.1126479E+00
        -11   -1    0    0    0    0  0.00000000000E+00  0.00000000000E+00  0.12500000000E+03  0.12500000000E+03  0.00000000000E+00 0.  1.
         11   -1    0    0    0    0 -0.00000000000E+00 -0.00000000000E+00 -0.12500000000E+03  0.12500000000E+03  0.00000000000E+00 0. -1.
         24    1    1    2    0    0  0.58276015077E+02 -0.41092038012E+02  0.63821113469E+02  0.12500000000E+03  0.80419002446E+02 0.  1.
        -24    1    1    2    0    0 -0.58276015077E+02  0.41092038012E+02 -0.63821113469E+02  0.12500000000E+03  0.80419002446E+02 0. -1.
</event>
<event>
 4    1  0.1590495E-001  0.1250000E+03  0.7546771E-02  0.1126479E+00
        -11   -1    0    0    0    0  0.00000000000E+00  0.00000000000E+00  0.12500000000E+03  0.12500000000E+03  0.00000000000E+00 0.  1.
         11   -1    0    0    0    0 -0.00000000000E+00 -0.00000000000E+00 -0.12500000000E+03  0.12500000000E+03  0.00000000000E+00 0. -1.
         24    1    1    2    0    0  0.50662566123E+02  0.51674445146E+02  0.62616612479E+02  0.12500000000E+03  0.80419002446E+02 0.  1.
        -24    1    1    2    0    0 -0.50662566123E+02 -0.51674445146E+02 -0.62616612479E+02  0.12500000000E+03  0.80419002446E+02 0. -1.
</event>
<event>
 4    1  0.1590495E-001  0.1250000E+03  0.7546771E-02  0.1126479E+00
        -11   -1    0    0    0    0  0.00000000000E+00  0.00000000000E+00  0.12500000000E+03  0.12500000000E+03  0.00000000000E+00 0.  1.
         11   -1    0    0    0    0 -0.00000000000E+00 -0.00000000000E+00 -0.12500000000E+03  0.12500000000E+03  0.00000000000E+00 0. -1.
         24    1    1    2    0    0 -0.26253078255E+02  0.57459843589E+01  0.91845215398E+02  0.12500000000E+03  0.80419002446E+02 0.  1.
        -24    1    1    2    0    0  0.26253078255E+02 -0.57459843589E+01 -0.91845215398E+02  0.12500000000E+03  0.80419002446E+02 0. -1.
</event>
<event>
 4    1  0.1590495E-001  0.1250000E+03  0.7546771E-02  0.1126479E+00
        -11   -1    0    0    0    0  0.00000000000E+00  0.00000000000E+00  0.12500000000E+03  0.12500000000E+03  0.00000000000E+00 0.  1.
         11   -1    0    0    0    0 -0.00000000000E+00 -0.00000000000E+00 -0.12500000000E+03  0.12500000000E+03  0.00000000000E+00 0. -1.
         24    1    1    2    0    0  0.89552747272E+01  0.44463164391E+02  0.84265141740E+02  0.12500000000E+03  0.80419002446E+02 0.  1.
        -24    1    1    2    0    0 -0.89552747272E+01 -0.44463164391E+02 -0.84265141740E+02  0.12500000000E+03  0.80419002446E+02 0. -1.
</event>
<event>
 4    1  0.1590495E-001  0.1250000E+03  0.7546771E-02  0.1126479E+00
        -11   -1    0    0    0    0  0.00000000000E+00  0.00000000000E+00  0.12500000000E+03  0.12500000000E+03  0.00000000000E+00 0.  1.
         11   -1    0    0    0    0 -0.00000000000E+00 -0.00000000000E+00 -0.12500000000E+03  0.12500000000E+03  0.00000000000E+00 0. -1.
         24    1    1    2    0    0 -0.59015711991E+02  0.70374680236E+02 -0.26876275142E+02  0.12500000000E+03  0.80419002446E+02 0. -1.
        -24    1    1    2    0    0  0.59015711991E+02 -0.70374680236E+02  0.26876275142E+02  0.12500000000E+03  0.80419002446E+02 0.  1.
</event>
<event>
 4    1  0.1590495E-001  0.1250000E+03  0.7546771E-02  0.1126479E+00
        -11   -1    0    0    0    0  0.00000000000E+00  0.00000000000E+00  0.12500000000E+03  0.12500000000E+03  0.00000000000E+00 0.  1.
         11   -1    0    0    0    0 -0.00000000000E+00 -0.00000000000E+00 -0.12500000000E+03  0.12500000000E+03  0.00000000000E+00 0. -1.
         24    1    1    2    0    0  0.34339359824E+02 -0.49938308531E+02  0.74059150371E+02  0.12500000000E+03  0.80419002446E+02 0. -1.
        -24    1    1    2    0    0 -0.34339359824E+02  0.49938308531E+02 -0.74059150371E+02  0.12500000000E+03  0.80419002446E+02 0.  1.
</event>
<event>
 4    1  0.1590495E-001  0.1250000E+03  0.7546771E-02  0.1126479E+00
        -11   -1    0    0    0    0  0.00000000000E+00  0.00000000000E+00  0.12500000000E+03  0.12500000000E+03  0.00000000000E+00 0.  1.
         11   -1    0    0    0    0 -0.00000000000E+00 -0.00000000000E+00 -0.12500000000E+03  0.12500000000E+03  0.00000000000E+00 0. -1.
         24    1    1    2    0    0 -0.24098776510E+02  0.79420104623E+02  0.47639059584E+02  0.12500000000E+03  0.80419002446E+02 0.  1.
        -24    1    1    2    0    0  0.24098776510E+02 -0.79420104623E+02 -0.47639059584E+02  0.12500000000E+03  0.80419002446E+02 0. -1.
</event>
<event>
 4    1  0.1590495E-001  0.1250000E+03  0.7546771E-02  0.1126479E+00
        -11   -1    0    0    0    0  0.00000000000E+00  0.00000000000E+00  0.12500000000E+03  0.12500000000E+03  0.00000000000E+00 0.  1.
         11   -1    0    0    0    0 -0.00000000000E+00 -0.00000000000E+00 -0.12500000000E+03  0.12500000000E+03  0.00000000000E+00 0. -1.
         24    1    1    2    0    0 -0.35578425836E+01  0.58053756952E+02  0.75992677973E+02  0.12500000000E+03  0.80419002446E+02 0.  1.
        -24    1    1    2    0    0  0.35578425836E+01 -0.58053756952E+02 -0.75992677973E+02  0.12500000000E+03  0.80419002446E+02 0. -1.
</event>
<event>
 4    1  0.1590495E-001  0.1250000E+03  0.7546771E-02  0.1126479E+00
        -11   -1    0    0    0    0  0.00000000000E+00  0.00000000000E+00  0.12500000000E+03  0.12500000000E+03  0.00000000000E+00 0.  1.
         11   -1    0    0    0    0 -0.00000000000E+00 -0.00000000000E+00 -0.12500000000E+03  0.12500000000E+03  0.00000000000E+00 0. -1.
         24    1    1    2    0    0 -0.30116325827E+02 -0.29227840418E+01  0.90786828878E+02  0.12500000000E+03  0.80419002446E+02 0. -1.
        -24    1    1    2    0    0  0.30116325827E+02  0.29227840418E+01 -0.90786828878E+02  0.12500000000E+03  0.80419002446E+02 0.  0.
</event>
<event>
 4    1  0.1590495E-001  0.1250000E+03  0.7546771E-02  0.1126479E+00
        -11   -1    0    0    0    0  0.00000000000E+00  0.00000000000E+00  0.12500000000E+03  0.12500000000E+03  0.00000000000E+00 0.  1.
         11   -1    0    0    0    0 -0.00000000000E+00 -0.00000000000E+00 -0.12500000000E+03  0.12500000000E+03  0.00000000000E+00 0. -1.
         24    1    1    2    0    0 -0.39787038931E+02 -0.42557659045E+02  0.75918517078E+02  0.12500000000E+03  0.80419002446E+02 0.  1.
        -24    1    1    2    0    0  0.39787038931E+02  0.42557659045E+02 -0.75918517078E+02  0.12500000000E+03  0.80419002446E+02 0. -1.
</event>
<event>
 4    1  0.1590495E-001  0.1250000E+03  0.7546771E-02  0.1126479E+00
        -11   -1    0    0    0    0  0.00000000000E+00  0.00000000000E+00  0.12500000000E+03  0.12500000000E+03  0.00000000000E+00 0.  1.
         11   -1    0    0    0    0 -0.00000000000E+00 -0.00000000000E+00 -0.12500000000E+03  0.12500000000E+03  0.00000000000E+00 0. -1.
         24    1    1    2    0    0  0.22034502487E+02  0.73869463928E+02  0.56705970098E+02  0.12500000000E+03  0.80419002446E+02 0.  0.
        -24    1    1    2    0    0 -0.22034502487E+02 -0.73869463928E+02 -0.56705970098E+02  0.12500000000E+03  0.80419002446E+02 0. -1.
</event>
<event>
 4    1  0.1590495E-001  0.1250000E+03  0.7546771E-02  0.1126479E+00
        -11   -1    0    0    0    0  0.00000000000E+00  0.00000000000E+00  0.12500000000E+03  0.12500000000E+03  0.00000000000E+00 0.  1.
         11   -1    0    0    0    0 -0.00000000000E+00 -0.00000000000E+00 -0.12500000000E+03  0.12500000000E+03  0.00000000000E+00 0. -1.
         24    1    1    2    0    0  0.56731344667E+02  0.58179818815E+00  0.77064908284E+02  0.12500000000E+03  0.80419002446E+02 0.  0.
        -24    1    1    2    0    0 -0.56731344667E+02 -0.58179818815E+00 -0.77064908284E+02  0.12500000000E+03  0.80419002446E+02 0.  1.
</event>
<event>
 4    1  0.1590495E-001  0.1250000E+03  0.7546771E-02  0.1126479E+00
        -11   -1    0    0    0    0  0.00000000000E+00  0.00000000000E+00  0.12500000000E+03  0.12500000000E+03  0.00000000000E+00 0.  1.
         11   -1    0    0    0    0 -0.00000000000E+00 -0.00000000000E+00 -0.12500000000E+03  0.12500000000E+03  0.00000000000E+00 0. -1.
         24    1    1    2    0    0  0.78994860850E+01 -0.28526637842E+01  0.95327039577E+02  0.12500000000E+03  0.80419002446E+02 0.  1.
        -24    1    1    2    0    0 -0.78994860850E+01  0.28526637842E+01 -0.95327039577E+02  0.12500000000E+03  0.80419002446E+02 0. -1.
</event>
<event>
 4    1  0.1590495E-001  0.1250000E+03  0.7546771E-02  0.1126479E+00
        -11   -1    0    0    0    0  0.00000000000E+00  0.00000000000E+00  0.12500000000E+03  0.12500000000E+03  0.00000000000E+00 0.  1.
         11   -1    0    0    0    0 -0.00000000000E+00 -0.00000000000E+00 -0.12500000000E+03  0.12500000000E+03  0.00000000000E+00 0. -1.
         24    1    1    2    0    0 -0.25771327906E+02 -0.15639526413E+02  0.90824159325E+02  0.12500000000E+03  0.80419002446E+02 0.  1.
        -24    1    1    2    0    0  0.25771327906E+02  0.15639526413E+02 -0.90824159325E+02  0.12500000000E+03  0.80419002446E+02 0. -1.
</event>
<event>
 4    1  0.1590495E-001  0.1250000E+03  0.7546771E-02  0.1126479E+00
        -11   -1    0    0    0    0  0.00000000000E+00  0.00000000000E+00  0.12500000000E+03  0.12500000000E+03  0.00000000000E+00 0.  1.
         11   -1    0    0    0    0 -0.00000000000E+00 -0.00000000000E+00 -0.12500000000E+03  0.12500000000E+03  0.00000000000E+00 0. -1.
         24    1    1    2    0    0  0.26284478278E+02  0.40118292207E+01  0.91928317039E+02  0.12500000000E+03  0.80419002446E+02 0.  1.
        -24    1    1    2    0    0 -0.26284478278E+02 -0.40118292207E+01 -0.91928317039E+02  0.12500000000E+03  0.80419002446E+02 0. -1.
</event>
<event>
 4    1  0.1590495E-001  0.1250000E+03  0.7546771E-02  0.1126479E+00
        -11   -1    0    0    0    0  0.00000000000E+00  0.00000000000E+00  0.12500000000E+03  0.12500000000E+03  0.00000000000E+00 0.  1.
         11   -1    0    0    0    0 -0.00000000000E+00 -0.00000000000E+00 -0.12500000000E+03  0.12500000000E+03  0.00000000000E+00 0. -1.
         24    1    1    2    0    0  0.22928424073E+02  0.25858449501E+02  0.89237951593E+02  0.12500000000E+03  0.80419002446E+02 0.  1.
        -24    1    1    2    0    0 -0.22928424073E+02 -0.25858449501E+02 -0.89237951593E+02  0.12500000000E+03  0.80419002446E+02 0. -1.
</event>
<event>
 4    1  0.1590495E-001  0.1250000E+03  0.7546771E-02  0.1126479E+00
        -11   -1    0    0    0    0  0.00000000000E+00  0.00000000000E+00  0.12500000000E+03  0.12500000000E+03  0.00000000000E+00 0.  1.
         11   -1    0    0    0    0 -0.00000000000E+00 -0.00000000000E+00 -0.12500000000E+03  0.12500000000E+03  0.00000000000E+00 0. -1.
         24    1    1    2    0    0  0.69648745969E+02 -0.35833463873E+02  0.54979988154E+02  0.12500000000E+03  0.80419002446E+02 0. -1.
        -24    1    1    2    0    0 -0.69648745969E+02  0.35833463873E+02 -0.54979988154E+02  0.12500000000E+03  0.80419002446E+02 0.  0.
</event>
<event>
 4    1  0.1590495E-001  0.1250000E+03  0.7546771E-02  0.1126479E+00
        -11   -1    0    0    0    0  0.00000000000E+00  0.00000000000E+00  0.12500000000E+03  0.12500000000E+03  0.00000000000E+00 0.  1.
         11   -1    0    0    0    0 -0.00000000000E+00 -0.00000000000E+00 -0.12500000000E+03  0.12500000000E+03  0.00000000000E+00 0. -1.
         24    1    1    2    0    0 -0.12106543404E+02 -0.21094784550E+02  0.92553907088E+02  0.12500000000E+03  0.80419002446E+02 0.  0.
        -24    1    1    2    0    0  0.12106543404E+02  0.21094784550E+02 -0.92553907088E+02  0.12500000000E+03  0.80419002446E+02 0.  0.
</event>
<event>
 4    1  0.1590495E-001  0.1250000E+03  0.7546771E-02  0.1126479E+00
        -11   -1    0    0    0    0  0.00000000000E+00  0.00000000000E+00  0.12500000000E+03  0.12500000000E+03  0.00000000000E+00 0.  1.
         11   -1    0    0    0    0 -0.00000000000E+00 -0.00000000000E+00 -0.12500000000E+03  0.12500000000E+03  0.00000000000E+00 0. -1.
         24    1    1    2    0    0  0.33565922471E+02 -0.82188681545E+02  0.35723011074E+02  0.12500000000E+03  0.80419002446E+02 0. -1.
        -24    1    1    2    0    0 -0.33565922471E+02  0.82188681545E+02 -0.35723011074E+02  0.12500000000E+03  0.80419002446E+02 0.  1.
</event>
<event>
 4    1  0.1590495E-001  0.1250000E+03  0.7546771E-02  0.1126479E+00
        -11   -1    0    0    0    0  0.00000000000E+00  0.00000000000E+00  0.12500000000E+03  0.12500000000E+03  0.00000000000E+00 0.  1.
         11   -1    0    0    0    0 -0.00000000000E+00 -0.00000000000E+00 -0.12500000000E+03  0.12500000000E+03  0.00000000000E+00 0. -1.
         24    1    1    2    0    0  0.34000506353E+02 -0.63197201175E+02  0.63307688135E+02  0.12500000000E+03  0.80419002446E+02 0.  1.
        -24    1    1    2    0    0 -0.34000506353E+02  0.63197201175E+02 -0.63307688135E+02  0.12500000000E+03  0.80419002446E+02 0. -1.
</event>
<event>
 4    1  0.1590495E-001  0.1250000E+03  0.7546771E-02  0.1126479E+00
        -11   -1    0    0    0    0  0.00000000000E+00  0.00000000000E+00  0.12500000000E+03  0.12500000000E+03  0.00000000000E+00 0.  1.
         11   -1    0    0    0    0 -0.00000000000E+00 -0.00000000000E+00 -0.12500000000E+03  0.12500000000E+03  0.00000000000E+00 0. -1.
         24    1    1    2    0    0  0.40929287870E+01 -0.19105248444E+02  0.93680421975E+02  0.12500000000E+03  0.80419002446E+02 0.  1.
        -24    1    1    2    0    0 -0.40929287870E+01  0.19105248444E+02 -0.93680421975E+02  0.12500000000E+03  0.80419002446E+02 0.  0.
</event>
<event>
 4    1  0.1590495E-001  0.1250000E+03  0.7546771E-02  0.1126479E+00
        -11   -1    0    0    0    0  0.00000000000E+00  0.00000000000E+00  0.12500000000E+03  0.12500000000E+03  0.00000000000E+00 0.  1.
         11   -1    0    0    0    0 -0.00000000000E+00 -0.00000000000E+00 -0.12500000000E+03  0.12500000000E+03  0.00000000000E+00 0. -1.
         24    1    1    2    0    0 -0.55646448283E+02  0.41425489855E+02  0.65918022038E+02  0.12500000000E+03  0.80419002446E+02 0.  1.
        -24    1    1    2    0    0  0.55646448283E+02 -0.41425489855E+02 -0.65918022038E+02  0.12500000000E+03  0.80419002446E+02 0. -1.
</event>
<event>
 4    1  0.1590495E-001  0.1250000E+03  0.7546771E-02  0.1126479E+00
        -11   -1    0    0    0    0  0.00000000000E+00  0.00000000000E+00  0.12500000000E+03  0.12500000000E+03  0.00000000000E+00 0.  1.
         11   -1    0    0    0    0 -0.00000000000E+00 -0.00000000000E+00 -0.12500000000E+03  0.12500000000E+03  0.00000000000E+00 0. -1.
         24    1    1    2    0    0 -0.30384435713E+02 -0.12686887806E+02  0.89853285915E+02  0.12500000000E+03  0.80419002446E+02 0.  0.
        -24    1    1    2    0    0  0.30384435713E+02  0.12686887806E+02 -0.89853285915E+02  0.12500000000E+03  0.80419002446E+02 0.  0.
</event>
<event>
 4    1  0.1590495E-001  0.1250000E+03  0.7546771E-02  0.1126479E+00
        -11   -1    0    0    0    0  0.00000000000E+00  0.00000000000E+00  0.12500000000E+03  0.12500000000E+03  0.00000000000E+00 0.  1.
         11   -1    0    0    0    0 -0.00000000000E+00 -0.00000000000E+00 -0.12500000000E+03  0.12500000000E+03  0.00000000000E+00 0. -1.
         24    1    1    2    0    0  0.16791616344E+02 -0.54723766669E+02  0.76688558649E+02  0.12500000000E+03  0.80419002446E+02 0. -1.
        -24    1    1    2    0    0 -0.16791616344E+02  0.54723766669E+02 -0.76688558649E+02  0.12500000000E+03  0.80419002446E+02 0.  0.
</event>
<event>
 4    1  0.1590495E-001  0.1250000E+03  0.7546771E-02  0.1126479E+00
        -11   -1    0    0    0    0  0.00000000000E+00  0.00000000000E+00  0.12500000000E+03  0.12500000000E+03  0.00000000000E+00 0.  1.
         11   -1    0    0    0    0 -0.00000000000E+00 -0.00000000000E+00 -0.12500000000E+03  0.12500000000E+03  0.00000000000E+00 0. -1.
         24    1    1    2    0    0 -0.43195559213E+02  0.55555763011E+01  0.85211872893E+02  0.12500000000E+03  0.80419002446E+02 0.  1.
        -24    1    1    2    0    0  0.43195559213E+02 -0.55555763011E+01 -0.85211872893E+02  0.12500000000E+03  0.80419002446E+02 0. -1.
</event>
<event>
 4    1  0.1590495E-001  0.1250000E+03  0.7546771E-02  0.1126479E+00
        -11   -1    0    0    0    0  0.00000000000E+00  0.00000000000E+00  0.12500000000E+03  0.12500000000E+03  0.00000000000E+00 0.  1.
         11   -1    0    0    0    0 -0.00000000000E+00 -0.00000000000E+00 -0.12500000000E+03  0.12500000000E+03  0.00000000000E+00 0. -1.
         24    1    1    2    0    0 -0.44380628168E+02  0.47738024250E+02  0.70065861371E+02  0.12500000000E+03  0.80419002446E+02 0.  1.
        -24    1    1    2    0    0  0.44380628168E+02 -0.47738024250E+02 -0.70065861371E+02  0.12500000000E+03  0.80419002446E+02 0. -1.
</event>
<event>
 4    1  0.1590495E-001  0.1250000E+03  0.7546771E-02  0.1126479E+00
        -11   -1    0    0    0    0  0.00000000000E+00  0.00000000000E+00  0.12500000000E+03  0.12500000000E+03  0.00000000000E+00 0.  1.
         11   -1    0    0    0    0 -0.00000000000E+00 -0.00000000000E+00 -0.12500000000E+03  0.12500000000E+03  0.00000000000E+00 0. -1.
         24    1    1    2    0    0  0.68999028346E+02  0.33740970871E+02  0.57082966090E+02  0.12500000000E+03  0.80419002446E+02 0.  1.
        -24    1    1    2    0    0 -0.68999028346E+02 -0.33740970871E+02 -0.57082966090E+02  0.12500000000E+03  0.80419002446E+02 0. -1.
</event>
<event>
 4    1  0.1590495E-001  0.1250000E+03  0.7546771E-02  0.1126479E+00
        -11   -1    0    0    0    0  0.00000000000E+00  0.00000000000E+00  0.12500000000E+03  0.12500000000E+03  0.00000000000E+00 0.  1.
         11   -1    0    0    0    0 -0.00000000000E+00 -0.00000000000E+00 -0.12500000000E+03  0.12500000000E+03  0.00000000000E+00 0. -1.
         24    1    1    2    0    0 -0.63979436536E+02 -0.66623757533E+02  0.25013809752E+02  0.12500000000E+03  0.80419002446E+02 0. -1.
        -24    1    1    2    0    0  0.63979436536E+02  0.66623757533E+02 -0.25013809752E+02  0.12500000000E+03  0.80419002446E+02 0.  1.
</event>
<event>
 4    1  0.1590495E-001  0.1250000E+03  0.7546771E-02  0.1126479E+00
        -11   -1    0    0    0    0  0.00000000000E+00  0.00000000000E+00  0.12500000000E+03  0.12500000000E+03  0.00000000000E+00 0.  1.
         11   -1    0    0    0    0 -0.00000000000E+00 -0.00000000000E+00 -0.12500000000E+03  0.12500000000E+03  0.00000000000E+00 0. -1.
         24    1    1    2    0    0  0.50480675514E+02  0.37670928884E+02  0.72044337475E+02  0.12500000000E+03  0.80419002446E+02 0.  1.
        -24    1    1    2    0    0 -0.50480675514E+02 -0.37670928884E+02 -0.72044337475E+02  0.12500000000E+03  0.80419002446E+02 0. -1.
</event>
<event>
 4    1  0.1590495E-001  0.1250000E+03  0.7546771E-02  0.1126479E+00
        -11   -1    0    0    0    0  0.00000000000E+00  0.00000000000E+00  0.12500000000E+03  0.12500000000E+03  0.00000000000E+00 0.  1.
         11   -1    0    0    0    0 -0.00000000000E+00 -0.00000000000E+00 -0.12500000000E+03  0.12500000000E+03  0.00000000000E+00 0. -1.
         24    1    1    2    0    0 -0.44471470548E+01  0.10367815143E+02  0.95029023661E+02  0.12500000000E+03  0.80419002446E+02 0.  1.
        -24    1    1    2    0    0  0.44471470548E+01 -0.10367815143E+02 -0.95029023661E+02  0.12500000000E+03  0.80419002446E+02 0. -1.
</event>
<event>
 4    1  0.1590495E-001  0.1250000E+03  0.7546771E-02  0.1126479E+00
        -11   -1    0    0    0    0  0.00000000000E+00  0.00000000000E+00  0.12500000000E+03  0.12500000000E+03  0.00000000000E+00 0.  1.
         11   -1    0    0    0    0 -0.00000000000E+00 -0.00000000000E+00 -0.12500000000E+03  0.12500000000E+03  0.00000000000E+00 0. -1.
         24    1    1    2    0    0 -0.90243831057E+02  0.26717761621E+02 -0.17320398833E+02  0.12500000000E+03  0.80419002446E+02 0.  1.
        -24    1    1    2    0    0  0.90243831057E+02 -0.26717761621E+02  0.17320398833E+02  0.12500000000E+03  0.80419002446E+02 0. -1.
</event>
<event>
 4    1  0.1590495E-001  0.1250000E+03  0.7546771E-02  0.1126479E+00
        -11   -1    0    0    0    0  0.00000000000E+00  0.00000000000E+00  0.12500000000E+03  0.12500000000E+03  0.00000000000E+00 0.  1.
         11   -1    0    0    0    0 -0.00000000000E+00 -0.00000000000E+00 -0.12500000000E+03  0.12500000000E+03  0.00000000000E+00 0. -1.
         24    1    1    2    0    0 -0.66612719607E+01  0.35008124235E+02  0.88813527905E+02  0.12500000000E+03  0.80419002446E+02 0.  0.
        -24    1    1    2    0    0  0.66612719607E+01 -0.35008124235E+02 -0.88813527905E+02  0.12500000000E+03  0.80419002446E+02 0.  0.
</event>
<event>
 4    1  0.1590495E-001  0.1250000E+03  0.7546771E-02  0.1126479E+00
        -11   -1    0    0    0    0  0.00000000000E+00  0.00000000000E+00  0.12500000000E+03  0.12500000000E+03  0.00000000000E+00 0.  1.
         11   -1    0    0    0    0 -0.00000000000E+00 -0.00000000000E+00 -0.12500000000E+03  0.12500000000E+03  0.00000000000E+00 0. -1.
         24    1    1    2    0    0  0.21439829951E+01  0.40923521411E+02  0.86478047954E+02  0.12500000000E+03  0.80419002446E+02 0.  1.
        -24    1    1    2    0    0 -0.21439829951E+01 -0.40923521411E+02 -0.86478047954E+02  0.12500000000E+03  0.80419002446E+02 0. -1.
</event>
<event>
 4    1  0.1590495E-001  0.1250000E+03  0.7546771E-02  0.1126479E+00
        -11   -1    0    0    0    0  0.00000000000E+00  0.00000000000E+00  0.12500000000E+03  0.12500000000E+03  0.00000000000E+00 0.  1.
         11   -1    0    0    0    0 -0.00000000000E+00 -0.00000000000E+00 -0.12500000000E+03  0.12500000000E+03  0.00000000000E+00 0. -1.
         24    1    1    2    0    0 -0.76720356096E+02 -0.25770693639E+02  0.51065079609E+02  0.12500000000E+03  0.80419002446E+02 0. -1.
        -24    1    1    2    0    0  0.76720356096E+02  0.25770693639E+02 -0.51065079609E+02  0.12500000000E+03  0.80419002446E+02 0.  1.
</event>
<event>
 4    1  0.1590495E-001  0.1250000E+03  0.7546771E-02  0.1126479E+00
        -11   -1    0    0    0    0  0.00000000000E+00  0.00000000000E+00  0.12500000000E+03  0.12500000000E+03  0.00000000000E+00 0.  1.
         11   -1    0    0    0    0 -0.00000000000E+00 -0.00000000000E+00 -0.12500000000E+03  0.12500000000E+03  0.00000000000E+00 0. -1.
         24    1    1    2    0    0 -0.16195007706E+02 -0.42941510814E+02  0.83973403051E+02  0.12500000000E+03  0.80419002446E+02 0.  1.
        -24    1    1    2    0    0  0.16195007706E+02  0.42941510814E+02 -0.83973403051E+02  0.12500000000E+03  0.80419002446E+02 0. -1.
</event>
<event>
 4    1  0.1590495E-001  0.1250000E+03  0.7546771E-02  0.1126479E+00
        -11   -1    0    0    0    0  0.00000000000E+00  0.00000000000E+00  0.12500000000E+03  0.12500000000E+03  0.00000000000E+00 0.  1.
         11   -1    0    0    0    0 -0.00000000000E+00 -0.00000000000E+00 -0.12500000000E+03  0.12500000000E+03  0.00000000000E+00 0. -1.
         24    1    1    2    0    0 -0.71070336158E+01 -0.10840389530E+02  0.94814345295E+02  0.12500000000E+03  0.80419002446E+02 0.  1.
        -24    1    1    2    0    0  0.71070336158E+01  0.10840389530E+02 -0.94814345295E+02  0.12500000000E+03  0.80419002446E+02 0.  0.
</event>
<event>
 4    1  0.1590495E-001  0.1250000E+03  0.7546771E-02  0.1126479E+00
        -11   -1    0    0    0    0  0.00000000000E+00  0.00000000000E+00  0.12500000000E+03  0.12500000000E+03  0.00000000000E+00 0.  1.
         11   -1    0    0    0    0 -0.00000000000E+00 -0.00000000000E+00 -0.12500000000E+03  0.12500000000E+03  0.00000000000E+00 0. -1.
         24    1    1    2    0    0 -0.14688311633E+02  0.27142631856E+02  0.90583194263E+02  0.12500000000E+03  0.80419002446E+02 0.  1.
        -24    1    1    2    0    0  0.14688311633E+02 -0.27142631856E+02 -0.90583194263E+02  0.12500000000E+03  0.80419002446E+02 0. -1.
</event>
<event>
 4    1  0.1590495E-001  0.1250000E+03  0.7546771E-02  0.1126479E+00
        -11   -1    0    0    0    0  0.00000000000E+00  0.00000000000E+00  0.12500000000E+03  0.12500000000E+03  0.00000000000E+00 0.  1.
         11   -1    0    0    0    0 -0.00000000000E+00 -0.00000000000E+00 -0.12500000000E+03  0.12500000000E+03  0.00000000000E+00 0. -1.
         24    1    1    2    0    0 -0.28780902585E+02  0.17340132165E+02  0.89603367730E+02  0.12500000000E+03  0.80419002446E+02 0.  1.
        -24    1    1    2    0    0  0.28780902585E+02 -0.17340132165E+02 -0.89603367730E+02  0.12500000000E+03  0.80419002446E+02 0. -1.
</event>
<event>
 4    1  0.1590495E-001  0.1250000E+03  0.7546771E-02  0.1126479E+00
        -11   -1    0    0    0    0  0.00000000000E+00  0.00000000000E+00  0.12500000000E+03  0.12500000000E+03  0.00000000000E+00 0.  1.
         11   -1    0    0    0    0 -0.00000000000E+00 -0.00000000000E+00 -0.12500000000E+03  0.12500000000E+03  0.00000000000E+00 0. -1.
         24    1    1    2    0    0 -0.26871941346E+02 -0.57106850746E+02  0.71933930880E+02  0.12500000000E+03  0.80419002446E+02 0.  1.
        -24    1    1    2    0    0  0.26871941346E+02  0.57106850746E+02 -0.71933930880E+02  0.12500000000E+03  0.80419002446E+02 0. -1.
</event>
<event>
 4    1  0.1590495E-001  0.1250000E+03  0.7546771E-02  0.1126479E+00
        -11   -1    0    0    0    0  0.00000000000E+00  0.00000000000E+00  0.12500000000E+03  0.12500000000E+03  0.00000000000E+00 0.  1.
         11   -1    0    0    0    0 -0.00000000000E+00 -0.00000000000E+00 -0.12500000000E+03  0.12500000000E+03  0.00000000000E+00 0. -1.
         24    1    1    2    0    0  0.91528293729E+02 -0.24856951995E+02  0.12747055747E+02  0.12500000000E+03  0.80419002446E+02 0.  1.
        -24    1    1    2    0    0 -0.91528293729E+02  0.24856951995E+02 -0.12747055747E+02  0.12500000000E+03  0.80419002446E+02 0.  0.
</event>
<event>
 4    1  0.1590495E-001  0.1250000E+03  0.7546771E-02  0.1126479E+00
        -11   -1    0    0    0    0  0.00000000000E+00  0.00000000000E+00  0.12500000000E+03  0.12500000000E+03  0.00000000000E+00 0.  1.
         11   -1    0    0    0    0 -0.00000000000E+00 -0.00000000000E+00 -0.12500000000E+03  0.12500000000E+03  0.00000000000E+00 0. -1.
         24    1    1    2    0    0 -0.14251482043E+02  0.88807391691E+01  0.94211526774E+02  0.12500000000E+03  0.80419002446E+02 0.  0.
        -24    1    1    2    0    0  0.14251482043E+02 -0.88807391691E+01 -0.94211526774E+02  0.12500000000E+03  0.80419002446E+02 0. -1.
</event>
<event>
 4    1  0.1590495E-001  0.1250000E+03  0.7546771E-02  0.1126479E+00
        -11   -1    0    0    0    0  0.00000000000E+00  0.00000000000E+00  0.12500000000E+03  0.12500000000E+03  0.00000000000E+00 0.  1.
         11   -1    0    0    0    0 -0.00000000000E+00 -0.00000000000E+00 -0.12500000000E+03  0.12500000000E+03  0.00000000000E+00 0. -1.
         24    1    1    2    0    0  0.79529671540E+02  0.34189636846E+02  0.40790735746E+02  0.12500000000E+03  0.80419002446E+02 0.  0.
        -24    1    1    2    0    0 -0.79529671540E+02 -0.34189636846E+02 -0.40790735746E+02  0.12500000000E+03  0.80419002446E+02 0. -1.
</event>
<event>
 4    1  0.1590495E-001  0.1250000E+03  0.7546771E-02  0.1126479E+00
        -11   -1    0    0    0    0  0.00000000000E+00  0.00000000000E+00  0.12500000000E+03  0.12500000000E+03  0.00000000000E+00 0.  1.
         11   -1    0    0    0    0 -0.00000000000E+00 -0.00000000000E+00 -0.12500000000E+03  0.12500000000E+03  0.00000000000E+00 0. -1.
         24    1    1    2    0    0  0.14674595530E+02  0.13362251303E+01  0.94555035794E+02  0.12500000000E+03  0.80419002446E+02 0.  1.
        -24    1    1    2    0    0 -0.14674595530E+02 -0.13362251303E+01 -0.94555035794E+02  0.12500000000E+03  0.80419002446E+02 0.  0.
</event>
<event>
 4    1  0.1590495E-001  0.1250000E+03  0.7546771E-02  0.1126479E+00
        -11   -1    0    0    0    0  0.00000000000E+00  0.00000000000E+00  0.12500000000E+03  0.12500000000E+03  0.00000000000E+00 0.  1.
         11   -1    0    0    0    0 -0.00000000000E+00 -0.00000000000E+00 -0.12500000000E+03  0.12500000000E+03  0.00000000000E+00 0. -1.
         24    1    1    2    0    0  0.16906276952E+01  0.20872243899E+02  0.93377059593E+02  0.12500000000E+03  0.80419002446E+02 0.  1.
        -24    1    1    2    0    0 -0.16906276952E+01 -0.20872243899E+02 -0.93377059593E+02  0.12500000000E+03  0.80419002446E+02 0. -1.
</event>
<event>
 4    1  0.1590495E-001  0.1250000E+03  0.7546771E-02  0.1126479E+00
        -11   -1    0    0    0    0  0.00000000000E+00  0.00000000000E+00  0.12500000000E+03  0.12500000000E+03  0.00000000000E+00 0.  1.
         11   -1    0    0    0    0 -0.00000000000E+00 -0.00000000000E+00 -0.12500000000E+03  0.12500000000E+03  0.00000000000E+00 0. -1.
         24    1    1    2    0    0 -0.87964052207E+01 -0.27784291246E+02  0.91150647067E+02  0.12500000000E+03  0.80419002446E+02 0.  1.
        -24    1    1    2    0    0  0.87964052207E+01  0.27784291246E+02 -0.91150647067E+02  0.12500000000E+03  0.80419002446E+02 0. -1.
</event>
<event>
 4    1  0.1590495E-001  0.1250000E+03  0.7546771E-02  0.1126479E+00
        -11   -1    0    0    0    0  0.00000000000E+00  0.00000000000E+00  0.12500000000E+03  0.12500000000E+03  0.00000000000E+00 0.  1.
         11   -1    0    0    0    0 -0.00000000000E+00 -0.00000000000E+00 -0.12500000000E+03  0.12500000000E+03  0.00000000000E+00 0. -1.
         24    1    1    2    0    0 -0.16505821585E+02 -0.11068428619E+02  0.93609998330E+02  0.12500000000E+03  0.80419002446E+02 0.  1.
        -24    1    1    2    0    0  0.16505821585E+02  0.11068428619E+02 -0.93609998330E+02  0.12500000000E+03  0.80419002446E+02 0. -1.
</event>
<event>
 4    1  0.1590495E-001  0.1250000E+03  0.7546771E-02  0.1126479E+00
        -11   -1    0    0    0    0  0.00000000000E+00  0.00000000000E+00  0.12500000000E+03  0.12500000000E+03  0.00000000000E+00 0.  1.
         11   -1    0    0    0    0 -0.00000000000E+00 -0.00000000000E+00 -0.12500000000E+03  0.12500000000E+03  0.00000000000E+00 0. -1.
         24    1    1    2    0    0 -0.13668425079E+02  0.16845181059E+02  0.93205139754E+02  0.12500000000E+03  0.80419002446E+02 0.  1.
        -24    1    1    2    0    0  0.13668425079E+02 -0.16845181059E+02 -0.93205139754E+02  0.12500000000E+03  0.80419002446E+02 0. -1.
</event>
<event>
 4    1  0.1590495E-001  0.1250000E+03  0.7546771E-02  0.1126479E+00
        -11   -1    0    0    0    0  0.00000000000E+00  0.00000000000E+00  0.12500000000E+03  0.12500000000E+03  0.00000000000E+00 0.  1.
         11   -1    0    0    0    0 -0.00000000000E+00 -0.00000000000E+00 -0.12500000000E+03  0.12500000000E+03  0.00000000000E+00 0. -1.
         24    1    1    2    0    0 -0.53286860423E+02 -0.88880496352E+01  0.78989221578E+02  0.12500000000E+03  0.80419002446E+02 0.  1.
        -24    1    1    2    0    0  0.53286860423E+02  0.88880496352E+01 -0.78989221578E+02  0.12500000000E+03  0.80419002446E+02 0. -1.
</event>
<event>
 4    1  0.1590495E-001  0.1250000E+03  0.7546771E-02  0.1126479E+00
        -11   -1    0    0    0    0  0.00000000000E+00  0.00000000000E+00  0.12500000000E+03  0.12500000000E+03  0.00000000000E+00 0.  1.
         11   -1    0    0    0    0 -0.00000000000E+00 -0.00000000000E+00 -0.12500000000E+03  0.12500000000E+03  0.00000000000E+00 0. -1.
         24    1    1    2    0    0 -0.42099706194E+02  0.34435769911E+02  0.78737389687E+02  0.12500000000E+03  0.80419002446E+02 0.  1.
        -24    1    1    2    0    0  0.42099706194E+02 -0.34435769911E+02 -0.78737389687E+02  0.12500000000E+03  0.80419002446E+02 0. -1.
</event>
<event>
 4    1  0.1590495E-001  0.1250000E+03  0.7546771E-02  0.1126479E+00
        -11   -1    0    0    0    0  0.00000000000E+00  0.00000000000E+00  0.12500000000E+03  0.12500000000E+03  0.00000000000E+00 0.  1.
         11   -1    0    0    0    0 -0.00000000000E+00 -0.00000000000E+00 -0.12500000000E+03  0.12500000000E+03  0.00000000000E+00 0. -1.
         24    1    1    2    0    0  0.13443957146E+02  0.39483843835E+02  0.86128219173E+02  0.12500000000E+03  0.80419002446E+02 0.  1.
        -24    1    1    2    0    0 -0.13443957146E+02 -0.39483843835E+02 -0.86128219173E+02  0.12500000000E+03  0.80419002446E+02 0. -1.
</event>
<event>
 4    1  0.1590495E-001  0.1250000E+03  0.7546771E-02  0.1126479E+00
        -11   -1    0    0    0    0  0.00000000000E+00  0.00000000000E+00  0.12500000000E+03  0.12500000000E+03  0.00000000000E+00 0.  1.
         11   -1    0    0    0    0 -0.00000000000E+00 -0.00000000000E+00 -0.12500000000E+03  0.12500000000E+03  0.00000000000E+00 0. -1.
         24    1    1    2    0    0  0.90405693837E+02 -0.15911945397E+02 -0.27044492253E+02  0.12500000000E+03  0.80419002446E+02 0.  0.
        -24    1    1    2    0    0 -0.90405693837E+02  0.15911945397E+02  0.27044492253E+02  0.12500000000E+03  0.80419002446E+02 0. -1.
</event>
<event>
 4    1  0.1590495E-001  0.1250000E+03  0.7546771E-02  0.1126479E+00
        -11   -1    0    0    0    0  0.00000000000E+00  0.00000000000E+00  0.12500000000E+03  0.12500000000E+03  0.00000000000E+00 0.  1.
         11   -1    0    0    0    0 -0.00000000000E+00 -0.00000000000E+00 -0.12500000000E+03  0.12500000000E+03  0.00000000000E+00 0. -1.
         24    1    1    2    0    0  0.27102090222E+02  0.13367302535E+02  0.90799647434E+02  0.12500000000E+03  0.80419002446E+02 0.  1.
        -24    1    1    2    0    0 -0.27102090222E+02 -0.13367302535E+02 -0.90799647434E+02  0.12500000000E+03  0.80419002446E+02 0. -1.
</event>
<event>
 4    1  0.1590495E-001  0.1250000E+03  0.7546771E-02  0.1126479E+00
        -11   -1    0    0    0    0  0.00000000000E+00  0.00000000000E+00  0.12500000000E+03  0.12500000000E+03  0.00000000000E+00 0.  1.
         11   -1    0    0    0    0 -0.00000000000E+00 -0.00000000000E+00 -0.12500000000E+03  0.12500000000E+03  0.00000000000E+00 0. -1.
         24    1    1    2    0    0 -0.87645885508E+02  0.35651890231E+02  0.14315219945E+02  0.12500000000E+03  0.80419002446E+02 0. -1.
        -24    1    1    2    0    0  0.87645885508E+02 -0.35651890231E+02 -0.14315219945E+02  0.12500000000E+03  0.80419002446E+02 0.  1.
</event>
<event>
 4    1  0.1590495E-001  0.1250000E+03  0.7546771E-02  0.1126479E+00
        -11   -1    0    0    0    0  0.00000000000E+00  0.00000000000E+00  0.12500000000E+03  0.12500000000E+03  0.00000000000E+00 0.  1.
         11   -1    0    0    0    0 -0.00000000000E+00 -0.00000000000E+00 -0.12500000000E+03  0.12500000000E+03  0.00000000000E+00 0. -1.
         24    1    1    2    0    0 -0.46792038917E+02  0.18320658819E+02  0.81441037567E+02  0.12500000000E+03  0.80419002446E+02 0.  1.
        -24    1    1    2    0    0  0.46792038917E+02 -0.18320658819E+02 -0.81441037567E+02  0.12500000000E+03  0.80419002446E+02 0. -1.
</event>
<event>
 4    1  0.1590495E-001  0.1250000E+03  0.7546771E-02  0.1126479E+00
        -11   -1    0    0    0    0  0.00000000000E+00  0.00000000000E+00  0.12500000000E+03  0.12500000000E+03  0.00000000000E+00 0.  1.
         11   -1    0    0    0    0 -0.00000000000E+00 -0.00000000000E+00 -0.12500000000E+03  0.12500000000E+03  0.00000000000E+00 0. -1.
         24    1    1    2    0    0  0.17646685379E+02 -0.46731038314E+01  0.93939026189E+02  0.12500000000E+03  0.80419002446E+02 0.  1.
        -24    1    1    2    0    0 -0.17646685379E+02  0.46731038314E+01 -0.93939026189E+02  0.12500000000E+03  0.80419002446E+02 0. -1.
</event>
<event>
 4    1  0.1590495E-001  0.1250000E+03  0.7546771E-02  0.1126479E+00
        -11   -1    0    0    0    0  0.00000000000E+00  0.00000000000E+00  0.12500000000E+03  0.12500000000E+03  0.00000000000E+00 0.  1.
         11   -1    0    0    0    0 -0.00000000000E+00 -0.00000000000E+00 -0.12500000000E+03  0.12500000000E+03  0.00000000000E+00 0. -1.
         24    1    1    2    0    0  0.73983647950E+02  0.52953315820E+02  0.29667325888E+02  0.12500000000E+03  0.80419002446E+02 0.  1.
        -24    1    1    2    0    0 -0.73983647950E+02 -0.52953315820E+02 -0.29667325888E+02  0.12500000000E+03  0.80419002446E+02 0.  0.
</event>
<event>
 4    1  0.1590495E-001  0.1250000E+03  0.7546771E-02  0.1126479E+00
        -11   -1    0    0    0    0  0.00000000000E+00  0.00000000000E+00  0.12500000000E+03  0.12500000000E+03  0.00000000000E+00 0.  1.
         11   -1    0    0    0    0 -0.00000000000E+00 -0.00000000000E+00 -0.12500000000E+03  0.12500000000E+03  0.00000000000E+00 0. -1.
         24    1    1    2    0    0  0.81951141404E+01  0.67776340498E+02  0.67059613916E+02  0.12500000000E+03  0.80419002446E+02 0.  1.
        -24    1    1    2    0    0 -0.81951141404E+01 -0.67776340498E+02 -0.67059613916E+02  0.12500000000E+03  0.80419002446E+02 0. -1.
</event>
<event>
 4    1  0.1590495E-001  0.1250000E+03  0.7546771E-02  0.1126479E+00
        -11   -1    0    0    0    0  0.00000000000E+00  0.00000000000E+00  0.12500000000E+03  0.12500000000E+03  0.00000000000E+00 0.  1.
         11   -1    0    0    0    0 -0.00000000000E+00 -0.00000000000E+00 -0.12500000000E+03  0.12500000000E+03  0.00000000000E+00 0. -1.
         24    1    1    2    0    0  0.28668699459E+02 -0.33900542814E+02  0.84774069820E+02  0.12500000000E+03  0.80419002446E+02 0.  1.
        -24    1    1    2    0    0 -0.28668699459E+02  0.33900542814E+02 -0.84774069820E+02  0.12500000000E+03  0.80419002446E+02 0. -1.
</event>
<event>
 4    1  0.1590495E-001  0.1250000E+03  0.7546771E-02  0.1126479E+00
        -11   -1    0    0    0    0  0.00000000000E+00  0.00000000000E+00  0.12500000000E+03  0.12500000000E+03  0.00000000000E+00 0.  1.
         11   -1    0    0    0    0 -0.00000000000E+00 -0.00000000000E+00 -0.12500000000E+03  0.12500000000E+03  0.00000000000E+00 0. -1.
         24    1    1    2    0    0 -0.42707880660E+02  0.35180292000E+01  0.85565439552E+02  0.12500000000E+03  0.80419002446E+02 0.  1.
        -24    1    1    2    0    0  0.42707880660E+02 -0.35180292000E+01 -0.85565439552E+02  0.12500000000E+03  0.80419002446E+02 0. -1.
</event>
<event>
 4    1  0.1590495E-001  0.1250000E+03  0.7546771E-02  0.1126479E+00
        -11   -1    0    0    0    0  0.00000000000E+00  0.00000000000E+00  0.12500000000E+03  0.12500000000E+03  0.00000000000E+00 0.  1.
         11   -1    0    0    0    0 -0.00000000000E+00 -0.00000000000E+00 -0.12500000000E+03  0.12500000000E+03  0.00000000000E+00 0. -1.
         24    1    1    2    0    0 -0.86441733589E+02  0.39510234479E+02  0.11160291712E+02  0.12500000000E+03  0.80419002446E+02 0.  1.
        -24    1    1    2    0    0  0.86441733589E+02 -0.39510234479E+02 -0.11160291712E+02  0.12500000000E+03  0.80419002446E+02 0. -1.
</event>
<event>
 4    1  0.1590495E-001  0.1250000E+03  0.7546771E-02  0.1126479E+00
        -11   -1    0    0    0    0  0.00000000000E+00  0.00000000000E+00  0.12500000000E+03  0.12500000000E+03  0.00000000000E+00 0.  1.
         11   -1    0    0    0    0 -0.00000000000E+00 -0.00000000000E+00 -0.12500000000E+03  0.12500000000E+03  0.00000000000E+00 0. -1.
         24    1    1    2    0    0  0.88164734464E+01  0.31617742858E+02  0.89890890407E+02  0.12500000000E+03  0.80419002446E+02 0.  1.
        -24    1    1    2    0    0 -0.88164734464E+01 -0.31617742858E+02 -0.89890890407E+02  0.12500000000E+03  0.80419002446E+02 0. -1.
</event>
<event>
 4    1  0.1590495E-001  0.1250000E+03  0.7546771E-02  0.1126479E+00
        -11   -1    0    0    0    0  0.00000000000E+00  0.00000000000E+00  0.12500000000E+03  0.12500000000E+03  0.00000000000E+00 0.  1.
         11   -1    0    0    0    0 -0.00000000000E+00 -0.00000000000E+00 -0.12500000000E+03  0.12500000000E+03  0.00000000000E+00 0. -1.
         24    1    1    2    0    0 -0.62591201373E+02  0.65135855017E+01  0.72095067517E+02  0.12500000000E+03  0.80419002446E+02 0.  1.
        -24    1    1    2    0    0  0.62591201373E+02 -0.65135855017E+01 -0.72095067517E+02  0.12500000000E+03  0.80419002446E+02 0. -1.
</event>
<event>
 4    1  0.1590495E-001  0.1250000E+03  0.7546771E-02  0.1126479E+00
        -11   -1    0    0    0    0  0.00000000000E+00  0.00000000000E+00  0.12500000000E+03  0.12500000000E+03  0.00000000000E+00 0.  1.
         11   -1    0    0    0    0 -0.00000000000E+00 -0.00000000000E+00 -0.12500000000E+03  0.12500000000E+03  0.00000000000E+00 0. -1.
         24    1    1    2    0    0  0.14893982802E+01 -0.43994117195E+01  0.95583528471E+02  0.12500000000E+03  0.80419002446E+02 0.  1.
        -24    1    1    2    0    0 -0.14893982802E+01  0.43994117195E+01 -0.95583528471E+02  0.12500000000E+03  0.80419002446E+02 0.  0.
</event>
<event>
 4    1  0.1590495E-001  0.1250000E+03  0.7546771E-02  0.1126479E+00
        -11   -1    0    0    0    0  0.00000000000E+00  0.00000000000E+00  0.12500000000E+03  0.12500000000E+03  0.00000000000E+00 0.  1.
         11   -1    0    0    0    0 -0.00000000000E+00 -0.00000000000E+00 -0.12500000000E+03  0.12500000000E+03  0.00000000000E+00 0. -1.
         24    1    1    2    0    0  0.17024284141E+02  0.40124679656E+02  0.85193707970E+02  0.12500000000E+03  0.80419002446E+02 0.  1.
        -24    1    1    2    0    0 -0.17024284141E+02 -0.40124679656E+02 -0.85193707970E+02  0.12500000000E+03  0.80419002446E+02 0.  1.
</event>
<event>
 4    1  0.1590495E-001  0.1250000E+03  0.7546771E-02  0.1126479E+00
        -11   -1    0    0    0    0  0.00000000000E+00  0.00000000000E+00  0.12500000000E+03  0.12500000000E+03  0.00000000000E+00 0.  1.
         11   -1    0    0    0    0 -0.00000000000E+00 -0.00000000000E+00 -0.12500000000E+03  0.12500000000E+03  0.00000000000E+00 0. -1.
         24    1    1    2    0    0  0.18821078539E+02  0.47648727367E+02  0.80827902537E+02  0.12500000000E+03  0.80419002446E+02 0. -1.
        -24    1    1    2    0    0 -0.18821078539E+02 -0.47648727367E+02 -0.80827902537E+02  0.12500000000E+03  0.80419002446E+02 0.  0.
</event>
<event>
 4    1  0.1590495E-001  0.1250000E+03  0.7546771E-02  0.1126479E+00
        -11   -1    0    0    0    0  0.00000000000E+00  0.00000000000E+00  0.12500000000E+03  0.12500000000E+03  0.00000000000E+00 0.  1.
         11   -1    0    0    0    0 -0.00000000000E+00 -0.00000000000E+00 -0.12500000000E+03  0.12500000000E+03  0.00000000000E+00 0. -1.
         24    1    1    2    0    0 -0.20533515480E+02  0.20694745872E+02  0.91147607105E+02  0.12500000000E+03  0.80419002446E+02 0.  1.
        -24    1    1    2    0    0  0.20533515480E+02 -0.20694745872E+02 -0.91147607105E+02  0.12500000000E+03  0.80419002446E+02 0. -1.
</event>
<event>
 4    1  0.1590495E-001  0.1250000E+03  0.7546771E-02  0.1126479E+00
        -11   -1    0    0    0    0  0.00000000000E+00  0.00000000000E+00  0.12500000000E+03  0.12500000000E+03  0.00000000000E+00 0.  1.
         11   -1    0    0    0    0 -0.00000000000E+00 -0.00000000000E+00 -0.12500000000E+03  0.12500000000E+03  0.00000000000E+00 0. -1.
         24    1    1    2    0    0  0.10193998835E+02  0.94267681244E+02  0.12941047343E+02  0.12500000000E+03  0.80419002446E+02 0.  1.
        -24    1    1    2    0    0 -0.10193998835E+02 -0.94267681244E+02 -0.12941047343E+02  0.12500000000E+03  0.80419002446E+02 0. -1.
</event>
<event>
 4    1  0.1590495E-001  0.1250000E+03  0.7546771E-02  0.1126479E+00
        -11   -1    0    0    0    0  0.00000000000E+00  0.00000000000E+00  0.12500000000E+03  0.12500000000E+03  0.00000000000E+00 0.  1.
         11   -1    0    0    0    0 -0.00000000000E+00 -0.00000000000E+00 -0.12500000000E+03  0.12500000000E+03  0.00000000000E+00 0. -1.
         24    1    1    2    0    0  0.47985087073E+02  0.63605625754E+02  0.53005092554E+02  0.12500000000E+03  0.80419002446E+02 0.  1.
        -24    1    1    2    0    0 -0.47985087073E+02 -0.63605625754E+02 -0.53005092554E+02  0.12500000000E+03  0.80419002446E+02 0. -1.
</event>
<event>
 4    1  0.1590495E-001  0.1250000E+03  0.7546771E-02  0.1126479E+00
        -11   -1    0    0    0    0  0.00000000000E+00  0.00000000000E+00  0.12500000000E+03  0.12500000000E+03  0.00000000000E+00 0.  1.
         11   -1    0    0    0    0 -0.00000000000E+00 -0.00000000000E+00 -0.12500000000E+03  0.12500000000E+03  0.00000000000E+00 0. -1.
         24    1    1    2    0    0 -0.19414394319E+01  0.38057232936E+02  0.87781899500E+02  0.12500000000E+03  0.80419002446E+02 0.  1.
        -24    1    1    2    0    0  0.19414394319E+01 -0.38057232936E+02 -0.87781899500E+02  0.12500000000E+03  0.80419002446E+02 0. -1.
</event>
<event>
 4    1  0.1590495E-001  0.1250000E+03  0.7546771E-02  0.1126479E+00
        -11   -1    0    0    0    0  0.00000000000E+00  0.00000000000E+00  0.12500000000E+03  0.12500000000E+03  0.00000000000E+00 0.  1.
         11   -1    0    0    0    0 -0.00000000000E+00 -0.00000000000E+00 -0.12500000000E+03  0.12500000000E+03  0.00000000000E+00 0. -1.
         24    1    1    2    0    0  0.43512895403E+02 -0.15361875834E+01 -0.85217674851E+02  0.12500000000E+03  0.80419002446E+02 0.  0.
        -24    1    1    2    0    0 -0.43512895403E+02  0.15361875834E+01  0.85217674851E+02  0.12500000000E+03  0.80419002446E+02 0.  1.
</event>
<event>
 4    1  0.1590495E-001  0.1250000E+03  0.7546771E-02  0.1126479E+00
        -11   -1    0    0    0    0  0.00000000000E+00  0.00000000000E+00  0.12500000000E+03  0.12500000000E+03  0.00000000000E+00 0.  1.
         11   -1    0    0    0    0 -0.00000000000E+00 -0.00000000000E+00 -0.12500000000E+03  0.12500000000E+03  0.00000000000E+00 0. -1.
         24    1    1    2    0    0 -0.13043474920E+01 -0.30508148035E+02  0.90693636087E+02  0.12500000000E+03  0.80419002446E+02 0.  1.
        -24    1    1    2    0    0  0.13043474920E+01  0.30508148035E+02 -0.90693636087E+02  0.12500000000E+03  0.80419002446E+02 0. -1.
</event>
<event>
 4    1  0.1590495E-001  0.1250000E+03  0.7546771E-02  0.1126479E+00
        -11   -1    0    0    0    0  0.00000000000E+00  0.00000000000E+00  0.12500000000E+03  0.12500000000E+03  0.00000000000E+00 0.  1.
         11   -1    0    0    0    0 -0.00000000000E+00 -0.00000000000E+00 -0.12500000000E+03  0.12500000000E+03  0.00000000000E+00 0. -1.
         24    1    1    2    0    0  0.42078329815E+02 -0.69191691873E+02 -0.50987331578E+02  0.12500000000E+03  0.80419002446E+02 0. -1.
        -24    1    1    2    0    0 -0.42078329815E+02  0.69191691873E+02  0.50987331578E+02  0.12500000000E+03  0.80419002446E+02 0.  1.
</event>
<event>
 4    1  0.1590495E-001  0.1250000E+03  0.7546771E-02  0.1126479E+00
        -11   -1    0    0    0    0  0.00000000000E+00  0.00000000000E+00  0.12500000000E+03  0.12500000000E+03  0.00000000000E+00 0.  1.
         11   -1    0    0    0    0 -0.00000000000E+00 -0.00000000000E+00 -0.12500000000E+03  0.12500000000E+03  0.00000000000E+00 0. -1.
         24    1    1    2    0    0  0.86794805708E+02  0.37568099684E+02  0.14597384487E+02  0.12500000000E+03  0.80419002446E+02 0.  1.
        -24    1    1    2    0    0 -0.86794805708E+02 -0.37568099684E+02 -0.14597384487E+02  0.12500000000E+03  0.80419002446E+02 0. -1.
</event>
<event>
 4    1  0.1590495E-001  0.1250000E+03  0.7546771E-02  0.1126479E+00
        -11   -1    0    0    0    0  0.00000000000E+00  0.00000000000E+00  0.12500000000E+03  0.12500000000E+03  0.00000000000E+00 0.  1.
         11   -1    0    0    0    0 -0.00000000000E+00 -0.00000000000E+00 -0.12500000000E+03  0.12500000000E+03  0.00000000000E+00 0. -1.
         24    1    1    2    0    0  0.82122961867E+01 -0.26066489168E+01  0.95307647219E+02  0.12500000000E+03  0.80419002446E+02 0.  1.
        -24    1    1    2    0    0 -0.82122961867E+01  0.26066489168E+01 -0.95307647219E+02  0.12500000000E+03  0.80419002446E+02 0.  0.
</event>
<event>
 4    1  0.1590495E-001  0.1250000E+03  0.7546771E-02  0.1126479E+00
        -11   -1    0    0    0    0  0.00000000000E+00  0.00000000000E+00  0.12500000000E+03  0.12500000000E+03  0.00000000000E+00 0.  1.
         11   -1    0    0    0    0 -0.00000000000E+00 -0.00000000000E+00 -0.12500000000E+03  0.12500000000E+03  0.00000000000E+00 0. -1.
         24    1    1    2    0    0 -0.31442625853E+02  0.36548738132E+02  0.82663988932E+02  0.12500000000E+03  0.80419002446E+02 0.  1.
        -24    1    1    2    0    0  0.31442625853E+02 -0.36548738132E+02 -0.82663988932E+02  0.12500000000E+03  0.80419002446E+02 0. -1.
</event>
<event>
 4    1  0.1590495E-001  0.1250000E+03  0.7546771E-02  0.1126479E+00
        -11   -1    0    0    0    0  0.00000000000E+00  0.00000000000E+00  0.12500000000E+03  0.12500000000E+03  0.00000000000E+00 0. -1.
         11   -1    0    0    0    0 -0.00000000000E+00 -0.00000000000E+00 -0.12500000000E+03  0.12500000000E+03  0.00000000000E+00 0.  1.
         24    1    1    2    0    0  0.14348428998E+02  0.82682129068E+02  0.45995349370E+02  0.12500000000E+03  0.80419002446E+02 0. -1.
        -24    1    1    2    0    0 -0.14348428998E+02 -0.82682129068E+02 -0.45995349370E+02  0.12500000000E+03  0.80419002446E+02 0.  0.
</event>
<event>
 4    1  0.1590495E-001  0.1250000E+03  0.7546771E-02  0.1126479E+00
        -11   -1    0    0    0    0  0.00000000000E+00  0.00000000000E+00  0.12500000000E+03  0.12500000000E+03  0.00000000000E+00 0.  1.
         11   -1    0    0    0    0 -0.00000000000E+00 -0.00000000000E+00 -0.12500000000E+03  0.12500000000E+03  0.00000000000E+00 0. -1.
         24    1    1    2    0    0  0.24033847197E+02 -0.61995363494E+02  0.68823928541E+02  0.12500000000E+03  0.80419002446E+02 0.  1.
        -24    1    1    2    0    0 -0.24033847197E+02  0.61995363494E+02 -0.68823928541E+02  0.12500000000E+03  0.80419002446E+02 0. -1.
</event>
<event>
 4    1  0.1590495E-001  0.1250000E+03  0.7546771E-02  0.1126479E+00
        -11   -1    0    0    0    0  0.00000000000E+00  0.00000000000E+00  0.12500000000E+03  0.12500000000E+03  0.00000000000E+00 0.  1.
         11   -1    0    0    0    0 -0.00000000000E+00 -0.00000000000E+00 -0.12500000000E+03  0.12500000000E+03  0.00000000000E+00 0. -1.
         24    1    1    2    0    0  0.41668030146E+02 -0.57058779029E+02  0.64543435337E+02  0.12500000000E+03  0.80419002446E+02 0. -1.
        -24    1    1    2    0    0 -0.41668030146E+02  0.57058779029E+02 -0.64543435337E+02  0.12500000000E+03  0.80419002446E+02 0.  0.
</event>
<event>
 4    1  0.1590495E-001  0.1250000E+03  0.7546771E-02  0.1126479E+00
        -11   -1    0    0    0    0  0.00000000000E+00  0.00000000000E+00  0.12500000000E+03  0.12500000000E+03  0.00000000000E+00 0.  1.
         11   -1    0    0    0    0 -0.00000000000E+00 -0.00000000000E+00 -0.12500000000E+03  0.12500000000E+03  0.00000000000E+00 0. -1.
         24    1    1    2    0    0 -0.33072417114E+02  0.17341019302E+02  0.88109524578E+02  0.12500000000E+03  0.80419002446E+02 0.  1.
        -24    1    1    2    0    0  0.33072417114E+02 -0.17341019302E+02 -0.88109524578E+02  0.12500000000E+03  0.80419002446E+02 0. -1.
</event>
<event>
 4    1  0.1590495E-001  0.1250000E+03  0.7546771E-02  0.1126479E+00
        -11   -1    0    0    0    0  0.00000000000E+00  0.00000000000E+00  0.12500000000E+03  0.12500000000E+03  0.00000000000E+00 0.  1.
         11   -1    0    0    0    0 -0.00000000000E+00 -0.00000000000E+00 -0.12500000000E+03  0.12500000000E+03  0.00000000000E+00 0. -1.
         24    1    1    2    0    0  0.47190940543E+02 -0.76878402382E+02 -0.31945428836E+02  0.12500000000E+03  0.80419002446E+02 0.  0.
        -24    1    1    2    0    0 -0.47190940543E+02  0.76878402382E+02  0.31945428836E+02  0.12500000000E+03  0.80419002446E+02 0. -1.
</event>
<event>
 4    1  0.1590495E-001  0.1250000E+03  0.7546771E-02  0.1126479E+00
        -11   -1    0    0    0    0  0.00000000000E+00  0.00000000000E+00  0.12500000000E+03  0.12500000000E+03  0.00000000000E+00 0.  1.
         11   -1    0    0    0    0 -0.00000000000E+00 -0.00000000000E+00 -0.12500000000E+03  0.12500000000E+03  0.00000000000E+00 0. -1.
         24    1    1    2    0    0 -0.25395038139E+02  0.16516276693E+02  0.90774934248E+02  0.12500000000E+03  0.80419002446E+02 0.  1.
        -24    1    1    2    0    0  0.25395038139E+02 -0.16516276693E+02 -0.90774934248E+02  0.12500000000E+03  0.80419002446E+02 0. -1.
</event>
<event>
 4    1  0.1590495E-001  0.1250000E+03  0.7546771E-02  0.1126479E+00
        -11   -1    0    0    0    0  0.00000000000E+00  0.00000000000E+00  0.12500000000E+03  0.12500000000E+03  0.00000000000E+00 0.  1.
         11   -1    0    0    0    0 -0.00000000000E+00 -0.00000000000E+00 -0.12500000000E+03  0.12500000000E+03  0.00000000000E+00 0. -1.
         24    1    1    2    0    0 -0.43955172006E+02 -0.29631524587E+02  0.79672452267E+02  0.12500000000E+03  0.80419002446E+02 0.  1.
        -24    1    1    2    0    0  0.43955172006E+02  0.29631524587E+02 -0.79672452267E+02  0.12500000000E+03  0.80419002446E+02 0. -1.
</event>
<event>
 4    1  0.1590495E-001  0.1250000E+03  0.7546771E-02  0.1126479E+00
        -11   -1    0    0    0    0  0.00000000000E+00  0.00000000000E+00  0.12500000000E+03  0.12500000000E+03  0.00000000000E+00 0.  1.
         11   -1    0    0    0    0 -0.00000000000E+00 -0.00000000000E+00 -0.12500000000E+03  0.12500000000E+03  0.00000000000E+00 0. -1.
         24    1    1    2    0    0  0.47146838623E+02  0.50943813191E+02  0.65876304928E+02  0.12500000000E+03  0.80419002446E+02 0.  1.
        -24    1    1    2    0    0 -0.47146838623E+02 -0.50943813191E+02 -0.65876304928E+02  0.12500000000E+03  0.80419002446E+02 0. -1.
</event>
<event>
 4    1  0.1590495E-001  0.1250000E+03  0.7546771E-02  0.1126479E+00
        -11   -1    0    0    0    0  0.00000000000E+00  0.00000000000E+00  0.12500000000E+03  0.12500000000E+03  0.00000000000E+00 0.  1.
         11   -1    0    0    0    0 -0.00000000000E+00 -0.00000000000E+00 -0.12500000000E+03  0.12500000000E+03  0.00000000000E+00 0. -1.
         24    1    1    2    0    0 -0.33250736237E+02  0.71894856615E+02  0.53696388869E+02  0.12500000000E+03  0.80419002446E+02 0.  1.
        -24    1    1    2    0    0  0.33250736237E+02 -0.71894856615E+02 -0.53696388869E+02  0.12500000000E+03  0.80419002446E+02 0. -1.
</event>
<event>
 4    1  0.1590495E-001  0.1250000E+03  0.7546771E-02  0.1126479E+00
        -11   -1    0    0    0    0  0.00000000000E+00  0.00000000000E+00  0.12500000000E+03  0.12500000000E+03  0.00000000000E+00 0.  1.
         11   -1    0    0    0    0 -0.00000000000E+00 -0.00000000000E+00 -0.12500000000E+03  0.12500000000E+03  0.00000000000E+00 0. -1.
         24    1    1    2    0    0  0.40677884893E+02 -0.54233579359E+02  0.67541191848E+02  0.12500000000E+03  0.80419002446E+02 0.  1.
        -24    1    1    2    0    0 -0.40677884893E+02  0.54233579359E+02 -0.67541191848E+02  0.12500000000E+03  0.80419002446E+02 0. -1.
</event>
<event>
 4    1  0.1590495E-001  0.1250000E+03  0.7546771E-02  0.1126479E+00
        -11   -1    0    0    0    0  0.00000000000E+00  0.00000000000E+00  0.12500000000E+03  0.12500000000E+03  0.00000000000E+00 0.  1.
         11   -1    0    0    0    0 -0.00000000000E+00 -0.00000000000E+00 -0.12500000000E+03  0.12500000000E+03  0.00000000000E+00 0. -1.
         24    1    1    2    0    0  0.23404610100E+02  0.18530356272E+01  0.92771625677E+02  0.12500000000E+03  0.80419002446E+02 0.  1.
        -24    1    1    2    0    0 -0.23404610100E+02 -0.18530356272E+01 -0.92771625677E+02  0.12500000000E+03  0.80419002446E+02 0. -1.
</event>
<event>
 4    1  0.1590495E-001  0.1250000E+03  0.7546771E-02  0.1126479E+00
        -11   -1    0    0    0    0  0.00000000000E+00  0.00000000000E+00  0.12500000000E+03  0.12500000000E+03  0.00000000000E+00 0.  1.
         11   -1    0    0    0    0 -0.00000000000E+00 -0.00000000000E+00 -0.12500000000E+03  0.12500000000E+03  0.00000000000E+00 0. -1.
         24    1    1    2    0    0  0.16167640879E+02 -0.56195275841E+02  0.75752771614E+02  0.12500000000E+03  0.80419002446E+02 0.  1.
        -24    1    1    2    0    0 -0.16167640879E+02  0.56195275841E+02 -0.75752771614E+02  0.12500000000E+03  0.80419002446E+02 0. -1.
</event>
<event>
 4    1  0.1590495E-001  0.1250000E+03  0.7546771E-02  0.1126479E+00
        -11   -1    0    0    0    0  0.00000000000E+00  0.00000000000E+00  0.12500000000E+03  0.12500000000E+03  0.00000000000E+00 0.  1.
         11   -1    0    0    0    0 -0.00000000000E+00 -0.00000000000E+00 -0.12500000000E+03  0.12500000000E+03  0.00000000000E+00 0. -1.
         24    1    1    2    0    0 -0.25269121979E+01  0.32987968025E+02  0.89795282315E+02  0.12500000000E+03  0.80419002446E+02 0.  1.
        -24    1    1    2    0    0  0.25269121979E+01 -0.32987968025E+02 -0.89795282315E+02  0.12500000000E+03  0.80419002446E+02 0. -1.
</event>
<event>
 4    1  0.1590495E-001  0.1250000E+03  0.7546771E-02  0.1126479E+00
        -11   -1    0    0    0    0  0.00000000000E+00  0.00000000000E+00  0.12500000000E+03  0.12500000000E+03  0.00000000000E+00 0.  1.
         11   -1    0    0    0    0 -0.00000000000E+00 -0.00000000000E+00 -0.12500000000E+03  0.12500000000E+03  0.00000000000E+00 0. -1.
         24    1    1    2    0    0 -0.37540477630E+02 -0.16762535595E+02  0.86414778744E+02  0.12500000000E+03  0.80419002446E+02 0.  1.
        -24    1    1    2    0    0  0.37540477630E+02  0.16762535595E+02 -0.86414778744E+02  0.12500000000E+03  0.80419002446E+02 0. -1.
</event>
<event>
 4    1  0.1590495E-001  0.1250000E+03  0.7546771E-02  0.1126479E+00
        -11   -1    0    0    0    0  0.00000000000E+00  0.00000000000E+00  0.12500000000E+03  0.12500000000E+03  0.00000000000E+00 0.  1.
         11   -1    0    0    0    0 -0.00000000000E+00 -0.00000000000E+00 -0.12500000000E+03  0.12500000000E+03  0.00000000000E+00 0. -1.
         24    1    1    2    0    0 -0.41836637363E+02 -0.67656332715E+01  0.85800384767E+02  0.12500000000E+03  0.80419002446E+02 0. -1.
        -24    1    1    2    0    0  0.41836637363E+02  0.67656332715E+01 -0.85800384767E+02  0.12500000000E+03  0.80419002446E+02 0. -1.
</event>
<event>
 4    1  0.1590495E-001  0.1250000E+03  0.7546771E-02  0.1126479E+00
        -11   -1    0    0    0    0  0.00000000000E+00  0.00000000000E+00  0.12500000000E+03  0.12500000000E+03  0.00000000000E+00 0.  1.
         11   -1    0    0    0    0 -0.00000000000E+00 -0.00000000000E+00 -0.12500000000E+03  0.12500000000E+03  0.00000000000E+00 0. -1.
         24    1    1    2    0    0 -0.28281848746E+02  0.29154270259E+02  0.86648425276E+02  0.12500000000E+03  0.80419002446E+02 0.  1.
        -24    1    1    2    0    0  0.28281848746E+02 -0.29154270259E+02 -0.86648425276E+02  0.12500000000E+03  0.80419002446E+02 0. -1.
</event>
<event>
 4    1  0.1590495E-001  0.1250000E+03  0.7546771E-02  0.1126479E+00
        -11   -1    0    0    0    0  0.00000000000E+00  0.00000000000E+00  0.12500000000E+03  0.12500000000E+03  0.00000000000E+00 0.  1.
         11   -1    0    0    0    0 -0.00000000000E+00 -0.00000000000E+00 -0.12500000000E+03  0.12500000000E+03  0.00000000000E+00 0. -1.
         24    1    1    2    0    0  0.87612660704E+02 -0.23813066297E+02  0.30244728526E+02  0.12500000000E+03  0.80419002446E+02 0.  1.
        -24    1    1    2    0    0 -0.87612660704E+02  0.23813066297E+02 -0.30244728526E+02  0.12500000000E+03  0.80419002446E+02 0. -1.
</event>
<event>
 4    1  0.1590495E-001  0.1250000E+03  0.7546771E-02  0.1126479E+00
        -11   -1    0    0    0    0  0.00000000000E+00  0.00000000000E+00  0.12500000000E+03  0.12500000000E+03  0.00000000000E+00 0.  1.
         11   -1    0    0    0    0 -0.00000000000E+00 -0.00000000000E+00 -0.12500000000E+03  0.12500000000E+03  0.00000000000E+00 0. -1.
         24    1    1    2    0    0 -0.48673362575E+01  0.85317708089E+02  0.43069499299E+02  0.12500000000E+03  0.80419002446E+02 0. -1.
        -24    1    1    2    0    0  0.48673362575E+01 -0.85317708089E+02 -0.43069499299E+02  0.12500000000E+03  0.80419002446E+02 0.  0.
</event>
<event>
 4    1  0.1590495E-001  0.1250000E+03  0.7546771E-02  0.1126479E+00
        -11   -1    0    0    0    0  0.00000000000E+00  0.00000000000E+00  0.12500000000E+03  0.12500000000E+03  0.00000000000E+00 0.  1.
         11   -1    0    0    0    0 -0.00000000000E+00 -0.00000000000E+00 -0.12500000000E+03  0.12500000000E+03  0.00000000000E+00 0. -1.
         24    1    1    2    0    0 -0.68305586526E+01  0.21114829346E+02  0.93087547480E+02  0.12500000000E+03  0.80419002446E+02 0.  1.
        -24    1    1    2    0    0  0.68305586526E+01 -0.21114829346E+02 -0.93087547480E+02  0.12500000000E+03  0.80419002446E+02 0. -1.
</event>
<event>
 4    1  0.1590495E-001  0.1250000E+03  0.7546771E-02  0.1126479E+00
        -11   -1    0    0    0    0  0.00000000000E+00  0.00000000000E+00  0.12500000000E+03  0.12500000000E+03  0.00000000000E+00 0.  1.
         11   -1    0    0    0    0 -0.00000000000E+00 -0.00000000000E+00 -0.12500000000E+03  0.12500000000E+03  0.00000000000E+00 0. -1.
         24    1    1    2    0    0 -0.75280557118E+01  0.19221455556E+02  0.93443287983E+02  0.12500000000E+03  0.80419002446E+02 0.  1.
        -24    1    1    2    0    0  0.75280557118E+01 -0.19221455556E+02 -0.93443287983E+02  0.12500000000E+03  0.80419002446E+02 0.  0.
</event>
<event>
 4    1  0.1590495E-001  0.1250000E+03  0.7546771E-02  0.1126479E+00
        -11   -1    0    0    0    0  0.00000000000E+00  0.00000000000E+00  0.12500000000E+03  0.12500000000E+03  0.00000000000E+00 0.  1.
         11   -1    0    0    0    0 -0.00000000000E+00 -0.00000000000E+00 -0.12500000000E+03  0.12500000000E+03  0.00000000000E+00 0. -1.
         24    1    1    2    0    0  0.94351012778E+02  0.15816435184E+02 -0.23475117748E+01  0.12500000000E+03  0.80419002446E+02 0.  0.
        -24    1    1    2    0    0 -0.94351012778E+02 -0.15816435184E+02  0.23475117748E+01  0.12500000000E+03  0.80419002446E+02 0. -1.
</event>
<event>
 4    1  0.1590495E-001  0.1250000E+03  0.7546771E-02  0.1126479E+00
        -11   -1    0    0    0    0  0.00000000000E+00  0.00000000000E+00  0.12500000000E+03  0.12500000000E+03  0.00000000000E+00 0.  1.
         11   -1    0    0    0    0 -0.00000000000E+00 -0.00000000000E+00 -0.12500000000E+03  0.12500000000E+03  0.00000000000E+00 0. -1.
         24    1    1    2    0    0 -0.78072468515E+02  0.67060510468E+01 -0.54931799397E+02  0.12500000000E+03  0.80419002446E+02 0. -1.
        -24    1    1    2    0    0  0.78072468515E+02 -0.67060510468E+01  0.54931799397E+02  0.12500000000E+03  0.80419002446E+02 0.  1.
</event>
<event>
 4    1  0.1590495E-001  0.1250000E+03  0.7546771E-02  0.1126479E+00
        -11   -1    0    0    0    0  0.00000000000E+00  0.00000000000E+00  0.12500000000E+03  0.12500000000E+03  0.00000000000E+00 0.  1.
         11   -1    0    0    0    0 -0.00000000000E+00 -0.00000000000E+00 -0.12500000000E+03  0.12500000000E+03  0.00000000000E+00 0. -1.
         24    1    1    2    0    0 -0.33516382996E+02  0.42490139635E+02  0.78924167087E+02  0.12500000000E+03  0.80419002446E+02 0.  1.
        -24    1    1    2    0    0  0.33516382996E+02 -0.42490139635E+02 -0.78924167087E+02  0.12500000000E+03  0.80419002446E+02 0. -1.
</event>
<event>
 4    1  0.1590495E-001  0.1250000E+03  0.7546771E-02  0.1126479E+00
        -11   -1    0    0    0    0  0.00000000000E+00  0.00000000000E+00  0.12500000000E+03  0.12500000000E+03  0.00000000000E+00 0.  1.
         11   -1    0    0    0    0 -0.00000000000E+00 -0.00000000000E+00 -0.12500000000E+03  0.12500000000E+03  0.00000000000E+00 0. -1.
         24    1    1    2    0    0 -0.21721825750E+02 -0.19536244566E+01  0.93177946335E+02  0.12500000000E+03  0.80419002446E+02 0.  1.
        -24    1    1    2    0    0  0.21721825750E+02  0.19536244566E+01 -0.93177946335E+02  0.12500000000E+03  0.80419002446E+02 0. -1.
</event>
<event>
 4    1  0.1590495E-001  0.1250000E+03  0.7546771E-02  0.1126479E+00
        -11   -1    0    0    0    0  0.00000000000E+00  0.00000000000E+00  0.12500000000E+03  0.12500000000E+03  0.00000000000E+00 0.  1.
         11   -1    0    0    0    0 -0.00000000000E+00 -0.00000000000E+00 -0.12500000000E+03  0.12500000000E+03  0.00000000000E+00 0. -1.
         24    1    1    2    0    0 -0.32682510825E+02 -0.10093749942E+02  0.89374234228E+02  0.12500000000E+03  0.80419002446E+02 0.  1.
        -24    1    1    2    0    0  0.32682510825E+02  0.10093749942E+02 -0.89374234228E+02  0.12500000000E+03  0.80419002446E+02 0. -1.
</event>
<event>
 4    1  0.1590495E-001  0.1250000E+03  0.7546771E-02  0.1126479E+00
        -11   -1    0    0    0    0  0.00000000000E+00  0.00000000000E+00  0.12500000000E+03  0.12500000000E+03  0.00000000000E+00 0.  1.
         11   -1    0    0    0    0 -0.00000000000E+00 -0.00000000000E+00 -0.12500000000E+03  0.12500000000E+03  0.00000000000E+00 0. -1.
         24    1    1    2    0    0 -0.20609339199E+02 -0.39884338342E+01  0.93365580269E+02  0.12500000000E+03  0.80419002446E+02 0.  1.
        -24    1    1    2    0    0  0.20609339199E+02  0.39884338342E+01 -0.93365580269E+02  0.12500000000E+03  0.80419002446E+02 0.  0.
</event>
<event>
 4    1  0.1590495E-001  0.1250000E+03  0.7546771E-02  0.1126479E+00
        -11   -1    0    0    0    0  0.00000000000E+00  0.00000000000E+00  0.12500000000E+03  0.12500000000E+03  0.00000000000E+00 0.  1.
         11   -1    0    0    0    0 -0.00000000000E+00 -0.00000000000E+00 -0.12500000000E+03  0.12500000000E+03  0.00000000000E+00 0. -1.
         24    1    1    2    0    0  0.65969021174E+02 -0.49814345800E+02  0.48212065332E+02  0.12500000000E+03  0.80419002446E+02 0.  1.
        -24    1    1    2    0    0 -0.65969021174E+02  0.49814345800E+02 -0.48212065332E+02  0.12500000000E+03  0.80419002446E+02 0. -1.
</event>
<event>
 4    1  0.1590495E-001  0.1250000E+03  0.7546771E-02  0.1126479E+00
        -11   -1    0    0    0    0  0.00000000000E+00  0.00000000000E+00  0.12500000000E+03  0.12500000000E+03  0.00000000000E+00 0.  1.
         11   -1    0    0    0    0 -0.00000000000E+00 -0.00000000000E+00 -0.12500000000E+03  0.12500000000E+03  0.00000000000E+00 0. -1.
         24    1    1    2    0    0  0.31541418398E+02  0.38515146064E+02  0.81728247838E+02  0.12500000000E+03  0.80419002446E+02 0.  1.
        -24    1    1    2    0    0 -0.31541418398E+02 -0.38515146064E+02 -0.81728247838E+02  0.12500000000E+03  0.80419002446E+02 0. -1.
</event>
<event>
 4    1  0.1590495E-001  0.1250000E+03  0.7546771E-02  0.1126479E+00
        -11   -1    0    0    0    0  0.00000000000E+00  0.00000000000E+00  0.12500000000E+03  0.12500000000E+03  0.00000000000E+00 0.  1.
         11   -1    0    0    0    0 -0.00000000000E+00 -0.00000000000E+00 -0.12500000000E+03  0.12500000000E+03  0.00000000000E+00 0. -1.
         24    1    1    2    0    0 -0.69307011257E+02 -0.65106940246E+02 -0.10742837987E+02  0.12500000000E+03  0.80419002446E+02 0. -1.
        -24    1    1    2    0    0  0.69307011257E+02  0.65106940246E+02  0.10742837987E+02  0.12500000000E+03  0.80419002446E+02 0.  1.
</event>
<event>
 4    1  0.1590495E-001  0.1250000E+03  0.7546771E-02  0.1126479E+00
        -11   -1    0    0    0    0  0.00000000000E+00  0.00000000000E+00  0.12500000000E+03  0.12500000000E+03  0.00000000000E+00 0.  1.
         11   -1    0    0    0    0 -0.00000000000E+00 -0.00000000000E+00 -0.12500000000E+03  0.12500000000E+03  0.00000000000E+00 0. -1.
         24    1    1    2    0    0 -0.10236660580E+01 -0.19224455621E+02  0.93739833899E+02  0.12500000000E+03  0.80419002446E+02 0.  1.
        -24    1    1    2    0    0  0.10236660580E+01  0.19224455621E+02 -0.93739833899E+02  0.12500000000E+03  0.80419002446E+02 0. -1.
</event>
<event>
 4    1  0.1590495E-001  0.1250000E+03  0.7546771E-02  0.1126479E+00
        -11   -1    0    0    0    0  0.00000000000E+00  0.00000000000E+00  0.12500000000E+03  0.12500000000E+03  0.00000000000E+00 0.  1.
         11   -1    0    0    0    0 -0.00000000000E+00 -0.00000000000E+00 -0.12500000000E+03  0.12500000000E+03  0.00000000000E+00 0. -1.
         24    1    1    2    0    0 -0.82260562992E+02  0.36169742260E+02  0.32904917060E+02  0.12500000000E+03  0.80419002446E+02 0.  1.
        -24    1    1    2    0    0  0.82260562992E+02 -0.36169742260E+02 -0.32904917060E+02  0.12500000000E+03  0.80419002446E+02 0. -1.
</event>
<event>
 4    1  0.1590495E-001  0.1250000E+03  0.7546771E-02  0.1126479E+00
        -11   -1    0    0    0    0  0.00000000000E+00  0.00000000000E+00  0.12500000000E+03  0.12500000000E+03  0.00000000000E+00 0.  1.
         11   -1    0    0    0    0 -0.00000000000E+00 -0.00000000000E+00 -0.12500000000E+03  0.12500000000E+03  0.00000000000E+00 0. -1.
         24    1    1    2    0    0 -0.72357937129E+02  0.56486229251E+02  0.27044757071E+02  0.12500000000E+03  0.80419002446E+02 0.  0.
        -24    1    1    2    0    0  0.72357937129E+02 -0.56486229251E+02 -0.27044757071E+02  0.12500000000E+03  0.80419002446E+02 0. -1.
</event>
<event>
 4    1  0.1590495E-001  0.1250000E+03  0.7546771E-02  0.1126479E+00
        -11   -1    0    0    0    0  0.00000000000E+00  0.00000000000E+00  0.12500000000E+03  0.12500000000E+03  0.00000000000E+00 0.  1.
         11   -1    0    0    0    0 -0.00000000000E+00 -0.00000000000E+00 -0.12500000000E+03  0.12500000000E+03  0.00000000000E+00 0. -1.
         24    1    1    2    0    0 -0.22658472668E+02 -0.27277390338E+02  0.88883753512E+02  0.12500000000E+03  0.80419002446E+02 0.  1.
        -24    1    1    2    0    0  0.22658472668E+02  0.27277390338E+02 -0.88883753512E+02  0.12500000000E+03  0.80419002446E+02 0. -1.
</event>
<event>
 4    1  0.1590495E-001  0.1250000E+03  0.7546771E-02  0.1126479E+00
        -11   -1    0    0    0    0  0.00000000000E+00  0.00000000000E+00  0.12500000000E+03  0.12500000000E+03  0.00000000000E+00 0.  1.
         11   -1    0    0    0    0 -0.00000000000E+00 -0.00000000000E+00 -0.12500000000E+03  0.12500000000E+03  0.00000000000E+00 0. -1.
         24    1    1    2    0    0  0.51754301889E+02  0.45222842719E+02  0.66589569589E+02  0.12500000000E+03  0.80419002446E+02 0.  1.
        -24    1    1    2    0    0 -0.51754301889E+02 -0.45222842719E+02 -0.66589569589E+02  0.12500000000E+03  0.80419002446E+02 0. -1.
</event>
<event>
 4    1  0.1590495E-001  0.1250000E+03  0.7546771E-02  0.1126479E+00
        -11   -1    0    0    0    0  0.00000000000E+00  0.00000000000E+00  0.12500000000E+03  0.12500000000E+03  0.00000000000E+00 0.  1.
         11   -1    0    0    0    0 -0.00000000000E+00 -0.00000000000E+00 -0.12500000000E+03  0.12500000000E+03  0.00000000000E+00 0. -1.
         24    1    1    2    0    0  0.78964334848E+02  0.50232383333E+02  0.19978126345E+02  0.12500000000E+03  0.80419002446E+02 0.  1.
        -24    1    1    2    0    0 -0.78964334848E+02 -0.50232383333E+02 -0.19978126345E+02  0.12500000000E+03  0.80419002446E+02 0.  0.
</event>
<event>
 4    1  0.1590495E-001  0.1250000E+03  0.7546771E-02  0.1126479E+00
        -11   -1    0    0    0    0  0.00000000000E+00  0.00000000000E+00  0.12500000000E+03  0.12500000000E+03  0.00000000000E+00 0.  1.
         11   -1    0    0    0    0 -0.00000000000E+00 -0.00000000000E+00 -0.12500000000E+03  0.12500000000E+03  0.00000000000E+00 0. -1.
         24    1    1    2    0    0 -0.53605877810E+02 -0.32804949655E+02  0.72166676437E+02  0.12500000000E+03  0.80419002446E+02 0. -1.
        -24    1    1    2    0    0  0.53605877810E+02  0.32804949655E+02 -0.72166676437E+02  0.12500000000E+03  0.80419002446E+02 0.  0.
</event>
<event>
 4    1  0.1590495E-001  0.1250000E+03  0.7546771E-02  0.1126479E+00
        -11   -1    0    0    0    0  0.00000000000E+00  0.00000000000E+00  0.12500000000E+03  0.12500000000E+03  0.00000000000E+00 0.  1.
         11   -1    0    0    0    0 -0.00000000000E+00 -0.00000000000E+00 -0.12500000000E+03  0.12500000000E+03  0.00000000000E+00 0. -1.
         24    1    1    2    0    0  0.61986566848E+02  0.44099590757E+02  0.58057520367E+02  0.12500000000E+03  0.80419002446E+02 0.  1.
        -24    1    1    2    0    0 -0.61986566848E+02 -0.44099590757E+02 -0.58057520367E+02  0.12500000000E+03  0.80419002446E+02 0. -1.
</event>
<event>
 4    1  0.1590495E-001  0.1250000E+03  0.7546771E-02  0.1126479E+00
        -11   -1    0    0    0    0  0.00000000000E+00  0.00000000000E+00  0.12500000000E+03  0.12500000000E+03  0.00000000000E+00 0.  1.
         11   -1    0    0    0    0 -0.00000000000E+00 -0.00000000000E+00 -0.12500000000E+03  0.12500000000E+03  0.00000000000E+00 0. -1.
         24    1    1    2    0    0  0.60250031077E+02  0.18059562356E+02  0.72121910737E+02  0.12500000000E+03  0.80419002446E+02 0.  1.
        -24    1    1    2    0    0 -0.60250031077E+02 -0.18059562356E+02 -0.72121910737E+02  0.12500000000E+03  0.80419002446E+02 0. -1.
</event>
<event>
 4    1  0.1590495E-001  0.1250000E+03  0.7546771E-02  0.1126479E+00
        -11   -1    0    0    0    0  0.00000000000E+00  0.00000000000E+00  0.12500000000E+03  0.12500000000E+03  0.00000000000E+00 0.  1.
         11   -1    0    0    0    0 -0.00000000000E+00 -0.00000000000E+00 -0.12500000000E+03  0.12500000000E+03  0.00000000000E+00 0. -1.
         24    1    1    2    0    0 -0.62024018359E+02 -0.68962931276E+02  0.23556725196E+02  0.12500000000E+03  0.80419002446E+02 0.  1.
        -24    1    1    2    0    0  0.62024018359E+02  0.68962931276E+02 -0.23556725196E+02  0.12500000000E+03  0.80419002446E+02 0.  0.
</event>
<event>
 4    1  0.1590495E-001  0.1250000E+03  0.7546771E-02  0.1126479E+00
        -11   -1    0    0    0    0  0.00000000000E+00  0.00000000000E+00  0.12500000000E+03  0.12500000000E+03  0.00000000000E+00 0.  1.
         11   -1    0    0    0    0 -0.00000000000E+00 -0.00000000000E+00 -0.12500000000E+03  0.12500000000E+03  0.00000000000E+00 0. -1.
         24    1    1    2    0    0  0.27336571737E+02 -0.87229434433E+02  0.28311157867E+02  0.12500000000E+03  0.80419002446E+02 0.  0.
        -24    1    1    2    0    0 -0.27336571737E+02  0.87229434433E+02 -0.28311157867E+02  0.12500000000E+03  0.80419002446E+02 0.  0.
</event>
<event>
 4    1  0.1590495E-001  0.1250000E+03  0.7546771E-02  0.1126479E+00
        -11   -1    0    0    0    0  0.00000000000E+00  0.00000000000E+00  0.12500000000E+03  0.12500000000E+03  0.00000000000E+00 0.  1.
         11   -1    0    0    0    0 -0.00000000000E+00 -0.00000000000E+00 -0.12500000000E+03  0.12500000000E+03  0.00000000000E+00 0. -1.
         24    1    1    2    0    0 -0.34251578807E+02  0.43720366350E+01  0.89249642523E+02  0.12500000000E+03  0.80419002446E+02 0.  1.
        -24    1    1    2    0    0  0.34251578807E+02 -0.43720366350E+01 -0.89249642523E+02  0.12500000000E+03  0.80419002446E+02 0. -1.
</event>
<event>
 4    1  0.1590495E-001  0.1250000E+03  0.7546771E-02  0.1126479E+00
        -11   -1    0    0    0    0  0.00000000000E+00  0.00000000000E+00  0.12500000000E+03  0.12500000000E+03  0.00000000000E+00 0.  1.
         11   -1    0    0    0    0 -0.00000000000E+00 -0.00000000000E+00 -0.12500000000E+03  0.12500000000E+03  0.00000000000E+00 0. -1.
         24    1    1    2    0    0  0.73024594991E+02 -0.59456144061E+02 -0.17034068963E+02  0.12500000000E+03  0.80419002446E+02 0. -1.
        -24    1    1    2    0    0 -0.73024594991E+02  0.59456144061E+02  0.17034068963E+02  0.12500000000E+03  0.80419002446E+02 0.  1.
</event>
<event>
 4    1  0.1590495E-001  0.1250000E+03  0.7546771E-02  0.1126479E+00
        -11   -1    0    0    0    0  0.00000000000E+00  0.00000000000E+00  0.12500000000E+03  0.12500000000E+03  0.00000000000E+00 0.  1.
         11   -1    0    0    0    0 -0.00000000000E+00 -0.00000000000E+00 -0.12500000000E+03  0.12500000000E+03  0.00000000000E+00 0. -1.
         24    1    1    2    0    0 -0.11887437261E+02  0.60541015752E+02  0.73152295198E+02  0.12500000000E+03  0.80419002446E+02 0.  1.
        -24    1    1    2    0    0  0.11887437261E+02 -0.60541015752E+02 -0.73152295198E+02  0.12500000000E+03  0.80419002446E+02 0. -1.
</event>
<event>
 4    1  0.1590495E-001  0.1250000E+03  0.7546771E-02  0.1126479E+00
        -11   -1    0    0    0    0  0.00000000000E+00  0.00000000000E+00  0.12500000000E+03  0.12500000000E+03  0.00000000000E+00 0.  1.
         11   -1    0    0    0    0 -0.00000000000E+00 -0.00000000000E+00 -0.12500000000E+03  0.12500000000E+03  0.00000000000E+00 0. -1.
         24    1    1    2    0    0  0.34826681320E+02  0.68160901579E+02  0.57436728753E+02  0.12500000000E+03  0.80419002446E+02 0.  1.
        -24    1    1    2    0    0 -0.34826681320E+02 -0.68160901579E+02 -0.57436728753E+02  0.12500000000E+03  0.80419002446E+02 0.  0.
</event>
<event>
 4    1  0.1590495E-001  0.1250000E+03  0.7546771E-02  0.1126479E+00
        -11   -1    0    0    0    0  0.00000000000E+00  0.00000000000E+00  0.12500000000E+03  0.12500000000E+03  0.00000000000E+00 0.  1.
         11   -1    0    0    0    0 -0.00000000000E+00 -0.00000000000E+00 -0.12500000000E+03  0.12500000000E+03  0.00000000000E+00 0. -1.
         24    1    1    2    0    0 -0.23755808162E+02  0.31608341826E+02  0.87145615789E+02  0.12500000000E+03  0.80419002446E+02 0.  1.
        -24    1    1    2    0    0  0.23755808162E+02 -0.31608341826E+02 -0.87145615789E+02  0.12500000000E+03  0.80419002446E+02 0. -1.
</event>
<event>
 4    1  0.1590495E-001  0.1250000E+03  0.7546771E-02  0.1126479E+00
        -11   -1    0    0    0    0  0.00000000000E+00  0.00000000000E+00  0.12500000000E+03  0.12500000000E+03  0.00000000000E+00 0.  1.
         11   -1    0    0    0    0 -0.00000000000E+00 -0.00000000000E+00 -0.12500000000E+03  0.12500000000E+03  0.00000000000E+00 0. -1.
         24    1    1    2    0    0  0.19869618387E+02 -0.20374674534E+02  0.91366596458E+02  0.12500000000E+03  0.80419002446E+02 0.  1.
        -24    1    1    2    0    0 -0.19869618387E+02  0.20374674534E+02 -0.91366596458E+02  0.12500000000E+03  0.80419002446E+02 0. -1.
</event>
<event>
 4    1  0.1590495E-001  0.1250000E+03  0.7546771E-02  0.1126479E+00
        -11   -1    0    0    0    0  0.00000000000E+00  0.00000000000E+00  0.12500000000E+03  0.12500000000E+03  0.00000000000E+00 0.  1.
         11   -1    0    0    0    0 -0.00000000000E+00 -0.00000000000E+00 -0.12500000000E+03  0.12500000000E+03  0.00000000000E+00 0. -1.
         24    1    1    2    0    0 -0.16933454171E+02 -0.42264103221E+02  0.84171181258E+02  0.12500000000E+03  0.80419002446E+02 0.  1.
        -24    1    1    2    0    0  0.16933454171E+02  0.42264103221E+02 -0.84171181258E+02  0.12500000000E+03  0.80419002446E+02 0. -1.
</event>
<event>
 4    1  0.1590495E-001  0.1250000E+03  0.7546771E-02  0.1126479E+00
        -11   -1    0    0    0    0  0.00000000000E+00  0.00000000000E+00  0.12500000000E+03  0.12500000000E+03  0.00000000000E+00 0.  1.
         11   -1    0    0    0    0 -0.00000000000E+00 -0.00000000000E+00 -0.12500000000E+03  0.12500000000E+03  0.00000000000E+00 0. -1.
         24    1    1    2    0    0  0.30328908793E+02 -0.48287334753E+02  0.76852291049E+02  0.12500000000E+03  0.80419002446E+02 0.  1.
        -24    1    1    2    0    0 -0.30328908793E+02  0.48287334753E+02 -0.76852291049E+02  0.12500000000E+03  0.80419002446E+02 0. -1.
</event>
<event>
 4    1  0.1590495E-001  0.1250000E+03  0.7546771E-02  0.1126479E+00
        -11   -1    0    0    0    0  0.00000000000E+00  0.00000000000E+00  0.12500000000E+03  0.12500000000E+03  0.00000000000E+00 0.  1.
         11   -1    0    0    0    0 -0.00000000000E+00 -0.00000000000E+00 -0.12500000000E+03  0.12500000000E+03  0.00000000000E+00 0. -1.
         24    1    1    2    0    0  0.69888770398E+02 -0.72677870476E+01  0.64965553098E+02  0.12500000000E+03  0.80419002446E+02 0.  1.
        -24    1    1    2    0    0 -0.69888770398E+02  0.72677870476E+01 -0.64965553098E+02  0.12500000000E+03  0.80419002446E+02 0. -1.
</event>
<event>
 4    1  0.1590495E-001  0.1250000E+03  0.7546771E-02  0.1126479E+00
        -11   -1    0    0    0    0  0.00000000000E+00  0.00000000000E+00  0.12500000000E+03  0.12500000000E+03  0.00000000000E+00 0.  1.
         11   -1    0    0    0    0 -0.00000000000E+00 -0.00000000000E+00 -0.12500000000E+03  0.12500000000E+03  0.00000000000E+00 0. -1.
         24    1    1    2    0    0  0.28352998694E+02 -0.33635040569E+02  0.84985737372E+02  0.12500000000E+03  0.80419002446E+02 0.  1.
        -24    1    1    2    0    0 -0.28352998694E+02  0.33635040569E+02 -0.84985737372E+02  0.12500000000E+03  0.80419002446E+02 0. -1.
</event>
<event>
 4    1  0.1590495E-001  0.1250000E+03  0.7546771E-02  0.1126479E+00
        -11   -1    0    0    0    0  0.00000000000E+00  0.00000000000E+00  0.12500000000E+03  0.12500000000E+03  0.00000000000E+00 0.  1.
         11   -1    0    0    0    0 -0.00000000000E+00 -0.00000000000E+00 -0.12500000000E+03  0.12500000000E+03  0.00000000000E+00 0. -1.
         24    1    1    2    0    0 -0.18085742396E+02  0.55297617519E+02  0.75979362095E+02  0.12500000000E+03  0.80419002446E+02 0.  1.
        -24    1    1    2    0    0  0.18085742396E+02 -0.55297617519E+02 -0.75979362095E+02  0.12500000000E+03  0.80419002446E+02 0. -1.
</event>
<event>
 4    1  0.1590495E-001  0.1250000E+03  0.7546771E-02  0.1126479E+00
        -11   -1    0    0    0    0  0.00000000000E+00  0.00000000000E+00  0.12500000000E+03  0.12500000000E+03  0.00000000000E+00 0.  1.
         11   -1    0    0    0    0 -0.00000000000E+00 -0.00000000000E+00 -0.12500000000E+03  0.12500000000E+03  0.00000000000E+00 0. -1.
         24    1    1    2    0    0 -0.12738323445E+01  0.31829028042E+02  0.90238984761E+02  0.12500000000E+03  0.80419002446E+02 0.  1.
        -24    1    1    2    0    0  0.12738323445E+01 -0.31829028042E+02 -0.90238984761E+02  0.12500000000E+03  0.80419002446E+02 0. -1.
</event>
<event>
 4    1  0.1590495E-001  0.1250000E+03  0.7546771E-02  0.1126479E+00
        -11   -1    0    0    0    0  0.00000000000E+00  0.00000000000E+00  0.12500000000E+03  0.12500000000E+03  0.00000000000E+00 0.  1.
         11   -1    0    0    0    0 -0.00000000000E+00 -0.00000000000E+00 -0.12500000000E+03  0.12500000000E+03  0.00000000000E+00 0. -1.
         24    1    1    2    0    0 -0.96163812609E+01 -0.31267589255E+02  0.89931346700E+02  0.12500000000E+03  0.80419002446E+02 0.  1.
        -24    1    1    2    0    0  0.96163812609E+01  0.31267589255E+02 -0.89931346700E+02  0.12500000000E+03  0.80419002446E+02 0. -1.
</event>
<event>
 4    1  0.1590495E-001  0.1250000E+03  0.7546771E-02  0.1126479E+00
        -11   -1    0    0    0    0  0.00000000000E+00  0.00000000000E+00  0.12500000000E+03  0.12500000000E+03  0.00000000000E+00 0.  1.
         11   -1    0    0    0    0 -0.00000000000E+00 -0.00000000000E+00 -0.12500000000E+03  0.12500000000E+03  0.00000000000E+00 0. -1.
         24    1    1    2    0    0 -0.56348616679E+02  0.27951852519E+02  0.72120117753E+02  0.12500000000E+03  0.80419002446E+02 0.  1.
        -24    1    1    2    0    0  0.56348616679E+02 -0.27951852519E+02 -0.72120117753E+02  0.12500000000E+03  0.80419002446E+02 0. -1.
</event>
<event>
 4    1  0.1590495E-001  0.1250000E+03  0.7546771E-02  0.1126479E+00
        -11   -1    0    0    0    0  0.00000000000E+00  0.00000000000E+00  0.12500000000E+03  0.12500000000E+03  0.00000000000E+00 0.  1.
         11   -1    0    0    0    0 -0.00000000000E+00 -0.00000000000E+00 -0.12500000000E+03  0.12500000000E+03  0.00000000000E+00 0. -1.
         24    1    1    2    0    0 -0.21769320639E+02  0.25039965592E+02  0.89760129499E+02  0.12500000000E+03  0.80419002446E+02 0.  1.
        -24    1    1    2    0    0  0.21769320639E+02 -0.25039965592E+02 -0.89760129499E+02  0.12500000000E+03  0.80419002446E+02 0. -1.
</event>
<event>
 4    1  0.1590495E-001  0.1250000E+03  0.7546771E-02  0.1126479E+00
        -11   -1    0    0    0    0  0.00000000000E+00  0.00000000000E+00  0.12500000000E+03  0.12500000000E+03  0.00000000000E+00 0.  1.
         11   -1    0    0    0    0 -0.00000000000E+00 -0.00000000000E+00 -0.12500000000E+03  0.12500000000E+03  0.00000000000E+00 0. -1.
         24    1    1    2    0    0 -0.29940953558E+02  0.15065862378E+02  0.89634497469E+02  0.12500000000E+03  0.80419002446E+02 0.  1.
        -24    1    1    2    0    0  0.29940953558E+02 -0.15065862378E+02 -0.89634497469E+02  0.12500000000E+03  0.80419002446E+02 0. -1.
</event>
<event>
 4    1  0.1590495E-001  0.1250000E+03  0.7546771E-02  0.1126479E+00
        -11   -1    0    0    0    0  0.00000000000E+00  0.00000000000E+00  0.12500000000E+03  0.12500000000E+03  0.00000000000E+00 0.  1.
         11   -1    0    0    0    0 -0.00000000000E+00 -0.00000000000E+00 -0.12500000000E+03  0.12500000000E+03  0.00000000000E+00 0. -1.
         24    1    1    2    0    0  0.31686935124E+02  0.22075370464E+02  0.87557981972E+02  0.12500000000E+03  0.80419002446E+02 0.  1.
        -24    1    1    2    0    0 -0.31686935124E+02 -0.22075370464E+02 -0.87557981972E+02  0.12500000000E+03  0.80419002446E+02 0. -1.
</event>
<event>
 4    1  0.1590495E-001  0.1250000E+03  0.7546771E-02  0.1126479E+00
        -11   -1    0    0    0    0  0.00000000000E+00  0.00000000000E+00  0.12500000000E+03  0.12500000000E+03  0.00000000000E+00 0.  1.
         11   -1    0    0    0    0 -0.00000000000E+00 -0.00000000000E+00 -0.12500000000E+03  0.12500000000E+03  0.00000000000E+00 0. -1.
         24    1    1    2    0    0 -0.79301867232E+02  0.41475763893E+02  0.33893346082E+02  0.12500000000E+03  0.80419002446E+02 0.  0.
        -24    1    1    2    0    0  0.79301867232E+02 -0.41475763893E+02 -0.33893346082E+02  0.12500000000E+03  0.80419002446E+02 0.  1.
</event>
<event>
 4    1  0.1590495E-001  0.1250000E+03  0.7546771E-02  0.1126479E+00
        -11   -1    0    0    0    0  0.00000000000E+00  0.00000000000E+00  0.12500000000E+03  0.12500000000E+03  0.00000000000E+00 0.  1.
         11   -1    0    0    0    0 -0.00000000000E+00 -0.00000000000E+00 -0.12500000000E+03  0.12500000000E+03  0.00000000000E+00 0. -1.
         24    1    1    2    0    0  0.81675052184E+01 -0.11297209951E+02  0.94675492877E+02  0.12500000000E+03  0.80419002446E+02 0.  1.
        -24    1    1    2    0    0 -0.81675052184E+01  0.11297209951E+02 -0.94675492877E+02  0.12500000000E+03  0.80419002446E+02 0.  0.
</event>
<event>
 4    1  0.1590495E-001  0.1250000E+03  0.7546771E-02  0.1126479E+00
        -11   -1    0    0    0    0  0.00000000000E+00  0.00000000000E+00  0.12500000000E+03  0.12500000000E+03  0.00000000000E+00 0.  1.
         11   -1    0    0    0    0 -0.00000000000E+00 -0.00000000000E+00 -0.12500000000E+03  0.12500000000E+03  0.00000000000E+00 0. -1.
         24    1    1    2    0    0  0.36264175918E+02  0.57660791509E+01  0.88371069485E+02  0.12500000000E+03  0.80419002446E+02 0.  1.
        -24    1    1    2    0    0 -0.36264175918E+02 -0.57660791509E+01 -0.88371069485E+02  0.12500000000E+03  0.80419002446E+02 0. -1.
</event>
<event>
 4    1  0.1590495E-001  0.1250000E+03  0.7546771E-02  0.1126479E+00
        -11   -1    0    0    0    0  0.00000000000E+00  0.00000000000E+00  0.12500000000E+03  0.12500000000E+03  0.00000000000E+00 0.  1.
         11   -1    0    0    0    0 -0.00000000000E+00 -0.00000000000E+00 -0.12500000000E+03  0.12500000000E+03  0.00000000000E+00 0. -1.
         24    1    1    2    0    0 -0.60453660553E+01  0.89124041224E+02 -0.34324085870E+02  0.12500000000E+03  0.80419002446E+02 0. -1.
        -24    1    1    2    0    0  0.60453660553E+01 -0.89124041224E+02  0.34324085870E+02  0.12500000000E+03  0.80419002446E+02 0.  1.
</event>
<event>
 4    1  0.1590495E-001  0.1250000E+03  0.7546771E-02  0.1126479E+00
        -11   -1    0    0    0    0  0.00000000000E+00  0.00000000000E+00  0.12500000000E+03  0.12500000000E+03  0.00000000000E+00 0.  1.
         11   -1    0    0    0    0 -0.00000000000E+00 -0.00000000000E+00 -0.12500000000E+03  0.12500000000E+03  0.00000000000E+00 0. -1.
         24    1    1    2    0    0 -0.30284680505E+02  0.32859660553E+02  0.84621893625E+02  0.12500000000E+03  0.80419002446E+02 0.  1.
        -24    1    1    2    0    0  0.30284680505E+02 -0.32859660553E+02 -0.84621893625E+02  0.12500000000E+03  0.80419002446E+02 0. -1.
</event>
<event>
 4    1  0.1590495E-001  0.1250000E+03  0.7546771E-02  0.1126479E+00
        -11   -1    0    0    0    0  0.00000000000E+00  0.00000000000E+00  0.12500000000E+03  0.12500000000E+03  0.00000000000E+00 0.  1.
         11   -1    0    0    0    0 -0.00000000000E+00 -0.00000000000E+00 -0.12500000000E+03  0.12500000000E+03  0.00000000000E+00 0. -1.
         24    1    1    2    0    0 -0.16100554236E+02  0.31543207159E+02  0.88902093795E+02  0.12500000000E+03  0.80419002446E+02 0.  1.
        -24    1    1    2    0    0  0.16100554236E+02 -0.31543207159E+02 -0.88902093795E+02  0.12500000000E+03  0.80419002446E+02 0. -1.
</event>
<event>
 4    1  0.1590495E-001  0.1250000E+03  0.7546771E-02  0.1126479E+00
        -11   -1    0    0    0    0  0.00000000000E+00  0.00000000000E+00  0.12500000000E+03  0.12500000000E+03  0.00000000000E+00 0.  1.
         11   -1    0    0    0    0 -0.00000000000E+00 -0.00000000000E+00 -0.12500000000E+03  0.12500000000E+03  0.00000000000E+00 0. -1.
         24    1    1    2    0    0  0.12385357648E+02 -0.36846275650E+02  0.87445634152E+02  0.12500000000E+03  0.80419002446E+02 0.  1.
        -24    1    1    2    0    0 -0.12385357648E+02  0.36846275650E+02 -0.87445634152E+02  0.12500000000E+03  0.80419002446E+02 0. -1.
</event>
<event>
 4    1  0.1590495E-001  0.1250000E+03  0.7546771E-02  0.1126479E+00
        -11   -1    0    0    0    0  0.00000000000E+00  0.00000000000E+00  0.12500000000E+03  0.12500000000E+03  0.00000000000E+00 0.  1.
         11   -1    0    0    0    0 -0.00000000000E+00 -0.00000000000E+00 -0.12500000000E+03  0.12500000000E+03  0.00000000000E+00 0. -1.
         24    1    1    2    0    0  0.15636774516E+02  0.50134434429E+02  0.79998836322E+02  0.12500000000E+03  0.80419002446E+02 0.  1.
        -24    1    1    2    0    0 -0.15636774516E+02 -0.50134434429E+02 -0.79998836322E+02  0.12500000000E+03  0.80419002446E+02 0. -1.
</event>
<event>
 4    1  0.1590495E-001  0.1250000E+03  0.7546771E-02  0.1126479E+00
        -11   -1    0    0    0    0  0.00000000000E+00  0.00000000000E+00  0.12500000000E+03  0.12500000000E+03  0.00000000000E+00 0.  1.
         11   -1    0    0    0    0 -0.00000000000E+00 -0.00000000000E+00 -0.12500000000E+03  0.12500000000E+03  0.00000000000E+00 0. -1.
         24    1    1    2    0    0 -0.91910874088E+02 -0.85054611076E+01  0.25255344018E+02  0.12500000000E+03  0.80419002446E+02 0.  1.
        -24    1    1    2    0    0  0.91910874088E+02  0.85054611076E+01 -0.25255344018E+02  0.12500000000E+03  0.80419002446E+02 0. -1.
</event>
<event>
 4    1  0.1590495E-001  0.1250000E+03  0.7546771E-02  0.1126479E+00
        -11   -1    0    0    0    0  0.00000000000E+00  0.00000000000E+00  0.12500000000E+03  0.12500000000E+03  0.00000000000E+00 0.  1.
         11   -1    0    0    0    0 -0.00000000000E+00 -0.00000000000E+00 -0.12500000000E+03  0.12500000000E+03  0.00000000000E+00 0. -1.
         24    1    1    2    0    0 -0.25911474981E+02  0.41168512918E+02  0.82410758121E+02  0.12500000000E+03  0.80419002446E+02 0.  1.
        -24    1    1    2    0    0  0.25911474981E+02 -0.41168512918E+02 -0.82410758121E+02  0.12500000000E+03  0.80419002446E+02 0.  1.
</event>
<event>
 4    1  0.1590495E-001  0.1250000E+03  0.7546771E-02  0.1126479E+00
        -11   -1    0    0    0    0  0.00000000000E+00  0.00000000000E+00  0.12500000000E+03  0.12500000000E+03  0.00000000000E+00 0.  1.
         11   -1    0    0    0    0 -0.00000000000E+00 -0.00000000000E+00 -0.12500000000E+03  0.12500000000E+03  0.00000000000E+00 0. -1.
         24    1    1    2    0    0 -0.33003822255E+02 -0.57443766378E+01  0.89641139547E+02  0.12500000000E+03  0.80419002446E+02 0.  1.
        -24    1    1    2    0    0  0.33003822255E+02  0.57443766378E+01 -0.89641139547E+02  0.12500000000E+03  0.80419002446E+02 0. -1.
</event>
<event>
 4    1  0.1590495E-001  0.1250000E+03  0.7546771E-02  0.1126479E+00
        -11   -1    0    0    0    0  0.00000000000E+00  0.00000000000E+00  0.12500000000E+03  0.12500000000E+03  0.00000000000E+00 0.  1.
         11   -1    0    0    0    0 -0.00000000000E+00 -0.00000000000E+00 -0.12500000000E+03  0.12500000000E+03  0.00000000000E+00 0. -1.
         24    1    1    2    0    0  0.61447681120E+02  0.34930054282E+02  0.64512462660E+02  0.12500000000E+03  0.80419002446E+02 0.  1.
        -24    1    1    2    0    0 -0.61447681120E+02 -0.34930054282E+02 -0.64512462660E+02  0.12500000000E+03  0.80419002446E+02 0. -1.
</event>
<event>
 4    1  0.1590495E-001  0.1250000E+03  0.7546771E-02  0.1126479E+00
        -11   -1    0    0    0    0  0.00000000000E+00  0.00000000000E+00  0.12500000000E+03  0.12500000000E+03  0.00000000000E+00 0.  1.
         11   -1    0    0    0    0 -0.00000000000E+00 -0.00000000000E+00 -0.12500000000E+03  0.12500000000E+03  0.00000000000E+00 0. -1.
         24    1    1    2    0    0  0.88537258938E+02  0.31195761237E+02  0.18594684889E+02  0.12500000000E+03  0.80419002446E+02 0. -1.
        -24    1    1    2    0    0 -0.88537258938E+02 -0.31195761237E+02 -0.18594684889E+02  0.12500000000E+03  0.80419002446E+02 0.  0.
</event>
<event>
 4    1  0.1590495E-001  0.1250000E+03  0.7546771E-02  0.1126479E+00
        -11   -1    0    0    0    0  0.00000000000E+00  0.00000000000E+00  0.12500000000E+03  0.12500000000E+03  0.00000000000E+00 0.  1.
         11   -1    0    0    0    0 -0.00000000000E+00 -0.00000000000E+00 -0.12500000000E+03  0.12500000000E+03  0.00000000000E+00 0. -1.
         24    1    1    2    0    0 -0.34774228131E+02  0.52658014619E+02  0.71942133691E+02  0.12500000000E+03  0.80419002446E+02 0.  1.
        -24    1    1    2    0    0  0.34774228131E+02 -0.52658014619E+02 -0.71942133691E+02  0.12500000000E+03  0.80419002446E+02 0. -1.
</event>
<event>
 4    1  0.1590495E-001  0.1250000E+03  0.7546771E-02  0.1126479E+00
        -11   -1    0    0    0    0  0.00000000000E+00  0.00000000000E+00  0.12500000000E+03  0.12500000000E+03  0.00000000000E+00 0.  1.
         11   -1    0    0    0    0 -0.00000000000E+00 -0.00000000000E+00 -0.12500000000E+03  0.12500000000E+03  0.00000000000E+00 0. -1.
         24    1    1    2    0    0 -0.25000875407E+02  0.75598973929E+01  0.92062957947E+02  0.12500000000E+03  0.80419002446E+02 0.  1.
        -24    1    1    2    0    0  0.25000875407E+02 -0.75598973929E+01 -0.92062957947E+02  0.12500000000E+03  0.80419002446E+02 0.  0.
</event>
<event>
 4    1  0.1590495E-001  0.1250000E+03  0.7546771E-02  0.1126479E+00
        -11   -1    0    0    0    0  0.00000000000E+00  0.00000000000E+00  0.12500000000E+03  0.12500000000E+03  0.00000000000E+00 0.  1.
         11   -1    0    0    0    0 -0.00000000000E+00 -0.00000000000E+00 -0.12500000000E+03  0.12500000000E+03  0.00000000000E+00 0. -1.
         24    1    1    2    0    0 -0.83446695463E+02 -0.21678161588E+02  0.41526983662E+02  0.12500000000E+03  0.80419002446E+02 0. -1.
        -24    1    1    2    0    0  0.83446695463E+02  0.21678161588E+02 -0.41526983662E+02  0.12500000000E+03  0.80419002446E+02 0.  1.
</event>
<event>
 4    1  0.1590495E-001  0.1250000E+03  0.7546771E-02  0.1126479E+00
        -11   -1    0    0    0    0  0.00000000000E+00  0.00000000000E+00  0.12500000000E+03  0.12500000000E+03  0.00000000000E+00 0.  1.
         11   -1    0    0    0    0 -0.00000000000E+00 -0.00000000000E+00 -0.12500000000E+03  0.12500000000E+03  0.00000000000E+00 0. -1.
         24    1    1    2    0    0  0.31659602673E+02 -0.51161423815E+02  0.74417486638E+02  0.12500000000E+03  0.80419002446E+02 0.  1.
        -24    1    1    2    0    0 -0.31659602673E+02  0.51161423815E+02 -0.74417486638E+02  0.12500000000E+03  0.80419002446E+02 0. -1.
</event>
<event>
 4    1  0.1590495E-001  0.1250000E+03  0.7546771E-02  0.1126479E+00
        -11   -1    0    0    0    0  0.00000000000E+00  0.00000000000E+00  0.12500000000E+03  0.12500000000E+03  0.00000000000E+00 0.  1.
         11   -1    0    0    0    0 -0.00000000000E+00 -0.00000000000E+00 -0.12500000000E+03  0.12500000000E+03  0.00000000000E+00 0. -1.
         24    1    1    2    0    0  0.75621597112E+02  0.57206319094E+02  0.12907174423E+02  0.12500000000E+03  0.80419002446E+02 0.  1.
        -24    1    1    2    0    0 -0.75621597112E+02 -0.57206319094E+02 -0.12907174423E+02  0.12500000000E+03  0.80419002446E+02 0. -1.
</event>
<event>
 4    1  0.1590495E-001  0.1250000E+03  0.7546771E-02  0.1126479E+00
        -11   -1    0    0    0    0  0.00000000000E+00  0.00000000000E+00  0.12500000000E+03  0.12500000000E+03  0.00000000000E+00 0.  1.
         11   -1    0    0    0    0 -0.00000000000E+00 -0.00000000000E+00 -0.12500000000E+03  0.12500000000E+03  0.00000000000E+00 0. -1.
         24    1    1    2    0    0 -0.34562883878E+02  0.17355285160E+02  0.87532766326E+02  0.12500000000E+03  0.80419002446E+02 0.  1.
        -24    1    1    2    0    0  0.34562883878E+02 -0.17355285160E+02 -0.87532766326E+02  0.12500000000E+03  0.80419002446E+02 0. -1.
</event>
<event>
 4    1  0.1590495E-001  0.1250000E+03  0.7546771E-02  0.1126479E+00
        -11   -1    0    0    0    0  0.00000000000E+00  0.00000000000E+00  0.12500000000E+03  0.12500000000E+03  0.00000000000E+00 0.  1.
         11   -1    0    0    0    0 -0.00000000000E+00 -0.00000000000E+00 -0.12500000000E+03  0.12500000000E+03  0.00000000000E+00 0. -1.
         24    1    1    2    0    0  0.20323459496E+02  0.28500782164E+02  0.89064282716E+02  0.12500000000E+03  0.80419002446E+02 0.  1.
        -24    1    1    2    0    0 -0.20323459496E+02 -0.28500782164E+02 -0.89064282716E+02  0.12500000000E+03  0.80419002446E+02 0. -1.
</event>
<event>
 4    1  0.1590495E-001  0.1250000E+03  0.7546771E-02  0.1126479E+00
        -11   -1    0    0    0    0  0.00000000000E+00  0.00000000000E+00  0.12500000000E+03  0.12500000000E+03  0.00000000000E+00 0.  1.
         11   -1    0    0    0    0 -0.00000000000E+00 -0.00000000000E+00 -0.12500000000E+03  0.12500000000E+03  0.00000000000E+00 0. -1.
         24    1    1    2    0    0  0.84082340798E+02  0.70180262035E+01  0.45151869505E+02  0.12500000000E+03  0.80419002446E+02 0.  1.
        -24    1    1    2    0    0 -0.84082340798E+02 -0.70180262035E+01 -0.45151869505E+02  0.12500000000E+03  0.80419002446E+02 0. -1.
</event>
<event>
 4    1  0.1590495E-001  0.1250000E+03  0.7546771E-02  0.1126479E+00
        -11   -1    0    0    0    0  0.00000000000E+00  0.00000000000E+00  0.12500000000E+03  0.12500000000E+03  0.00000000000E+00 0.  1.
         11   -1    0    0    0    0 -0.00000000000E+00 -0.00000000000E+00 -0.12500000000E+03  0.12500000000E+03  0.00000000000E+00 0. -1.
         24    1    1    2    0    0  0.12284435468E+02 -0.92471548610E+02  0.21351566418E+02  0.12500000000E+03  0.80419002446E+02 0. -1.
        -24    1    1    2    0    0 -0.12284435468E+02  0.92471548610E+02 -0.21351566418E+02  0.12500000000E+03  0.80419002446E+02 0.  1.
</event>
<event>
 4    1  0.1590495E-001  0.1250000E+03  0.7546771E-02  0.1126479E+00
        -11   -1    0    0    0    0  0.00000000000E+00  0.00000000000E+00  0.12500000000E+03  0.12500000000E+03  0.00000000000E+00 0.  1.
         11   -1    0    0    0    0 -0.00000000000E+00 -0.00000000000E+00 -0.12500000000E+03  0.12500000000E+03  0.00000000000E+00 0. -1.
         24    1    1    2    0    0 -0.77097071128E+01  0.16163347425E+02  0.94005801214E+02  0.12500000000E+03  0.80419002446E+02 0.  1.
        -24    1    1    2    0    0  0.77097071128E+01 -0.16163347425E+02 -0.94005801214E+02  0.12500000000E+03  0.80419002446E+02 0.  0.
</event>
<event>
 4    1  0.1590495E-001  0.1250000E+03  0.7546771E-02  0.1126479E+00
        -11   -1    0    0    0    0  0.00000000000E+00  0.00000000000E+00  0.12500000000E+03  0.12500000000E+03  0.00000000000E+00 0.  1.
         11   -1    0    0    0    0 -0.00000000000E+00 -0.00000000000E+00 -0.12500000000E+03  0.12500000000E+03  0.00000000000E+00 0. -1.
         24    1    1    2    0    0  0.19342744445E+02 -0.30698171999E+02  0.88550914839E+02  0.12500000000E+03  0.80419002446E+02 0.  1.
        -24    1    1    2    0    0 -0.19342744445E+02  0.30698171999E+02 -0.88550914839E+02  0.12500000000E+03  0.80419002446E+02 0. -1.
</event>
<event>
 4    1  0.1590495E-001  0.1250000E+03  0.7546771E-02  0.1126479E+00
        -11   -1    0    0    0    0  0.00000000000E+00  0.00000000000E+00  0.12500000000E+03  0.12500000000E+03  0.00000000000E+00 0.  1.
         11   -1    0    0    0    0 -0.00000000000E+00 -0.00000000000E+00 -0.12500000000E+03  0.12500000000E+03  0.00000000000E+00 0. -1.
         24    1    1    2    0    0 -0.82096968962E+02 -0.10858165436E+02 -0.47958023064E+02  0.12500000000E+03  0.80419002446E+02 0.  0.
        -24    1    1    2    0    0  0.82096968962E+02  0.10858165436E+02  0.47958023064E+02  0.12500000000E+03  0.80419002446E+02 0.  0.
</event>
<event>
 4    1  0.1590495E-001  0.1250000E+03  0.7546771E-02  0.1126479E+00
        -11   -1    0    0    0    0  0.00000000000E+00  0.00000000000E+00  0.12500000000E+03  0.12500000000E+03  0.00000000000E+00 0.  1.
         11   -1    0    0    0    0 -0.00000000000E+00 -0.00000000000E+00 -0.12500000000E+03  0.12500000000E+03  0.00000000000E+00 0. -1.
         24    1    1    2    0    0  0.47123554234E+02  0.53252175124E+02  0.64041865420E+02  0.12500000000E+03  0.80419002446E+02 0.  1.
        -24    1    1    2    0    0 -0.47123554234E+02 -0.53252175124E+02 -0.64041865420E+02  0.12500000000E+03  0.80419002446E+02 0. -1.
</event>
<event>
 4    1  0.1590495E-001  0.1250000E+03  0.7546771E-02  0.1126479E+00
        -11   -1    0    0    0    0  0.00000000000E+00  0.00000000000E+00  0.12500000000E+03  0.12500000000E+03  0.00000000000E+00 0.  1.
         11   -1    0    0    0    0 -0.00000000000E+00 -0.00000000000E+00 -0.12500000000E+03  0.12500000000E+03  0.00000000000E+00 0. -1.
         24    1    1    2    0    0  0.13835299853E+02 -0.32869331559E+02  0.88803015526E+02  0.12500000000E+03  0.80419002446E+02 0.  1.
        -24    1    1    2    0    0 -0.13835299853E+02  0.32869331559E+02 -0.88803015526E+02  0.12500000000E+03  0.80419002446E+02 0. -1.
</event>
<event>
 4    1  0.1590495E-001  0.1250000E+03  0.7546771E-02  0.1126479E+00
        -11   -1    0    0    0    0  0.00000000000E+00  0.00000000000E+00  0.12500000000E+03  0.12500000000E+03  0.00000000000E+00 0.  1.
         11   -1    0    0    0    0 -0.00000000000E+00 -0.00000000000E+00 -0.12500000000E+03  0.12500000000E+03  0.00000000000E+00 0. -1.
         24    1    1    2    0    0  0.67768029564E+02  0.14172451729E+02  0.66063755772E+02  0.12500000000E+03  0.80419002446E+02 0.  1.
        -24    1    1    2    0    0 -0.67768029564E+02 -0.14172451729E+02 -0.66063755772E+02  0.12500000000E+03  0.80419002446E+02 0. -1.
</event>
<event>
 4    1  0.1590495E-001  0.1250000E+03  0.7546771E-02  0.1126479E+00
        -11   -1    0    0    0    0  0.00000000000E+00  0.00000000000E+00  0.12500000000E+03  0.12500000000E+03  0.00000000000E+00 0.  1.
         11   -1    0    0    0    0 -0.00000000000E+00 -0.00000000000E+00 -0.12500000000E+03  0.12500000000E+03  0.00000000000E+00 0. -1.
         24    1    1    2    0    0 -0.37479307370E+02  0.62063579989E+02  0.62459567751E+02  0.12500000000E+03  0.80419002446E+02 0. -1.
        -24    1    1    2    0    0  0.37479307370E+02 -0.62063579989E+02 -0.62459567751E+02  0.12500000000E+03  0.80419002446E+02 0.  0.
</event>
<event>
 4    1  0.1590495E-001  0.1250000E+03  0.7546771E-02  0.1126479E+00
        -11   -1    0    0    0    0  0.00000000000E+00  0.00000000000E+00  0.12500000000E+03  0.12500000000E+03  0.00000000000E+00 0.  1.
         11   -1    0    0    0    0 -0.00000000000E+00 -0.00000000000E+00 -0.12500000000E+03  0.12500000000E+03  0.00000000000E+00 0. -1.
         24    1    1    2    0    0  0.38165506508E+02  0.53755252876E+02  0.69365343990E+02  0.12500000000E+03  0.80419002446E+02 0.  1.
        -24    1    1    2    0    0 -0.38165506508E+02 -0.53755252876E+02 -0.69365343990E+02  0.12500000000E+03  0.80419002446E+02 0. -1.
</event>
<event>
 4    1  0.1590495E-001  0.1250000E+03  0.7546771E-02  0.1126479E+00
        -11   -1    0    0    0    0  0.00000000000E+00  0.00000000000E+00  0.12500000000E+03  0.12500000000E+03  0.00000000000E+00 0.  1.
         11   -1    0    0    0    0 -0.00000000000E+00 -0.00000000000E+00 -0.12500000000E+03  0.12500000000E+03  0.00000000000E+00 0. -1.
         24    1    1    2    0    0  0.41858275958E+02  0.80580532874E+02 -0.30206729403E+02  0.12500000000E+03  0.80419002446E+02 0. -1.
        -24    1    1    2    0    0 -0.41858275958E+02 -0.80580532874E+02  0.30206729403E+02  0.12500000000E+03  0.80419002446E+02 0.  1.
</event>
<event>
 4    1  0.1590495E-001  0.1250000E+03  0.7546771E-02  0.1126479E+00
        -11   -1    0    0    0    0  0.00000000000E+00  0.00000000000E+00  0.12500000000E+03  0.12500000000E+03  0.00000000000E+00 0.  1.
         11   -1    0    0    0    0 -0.00000000000E+00 -0.00000000000E+00 -0.12500000000E+03  0.12500000000E+03  0.00000000000E+00 0. -1.
         24    1    1    2    0    0  0.38481092867E+02  0.14607775481E+02  0.86392143352E+02  0.12500000000E+03  0.80419002446E+02 0.  1.
        -24    1    1    2    0    0 -0.38481092867E+02 -0.14607775481E+02 -0.86392143352E+02  0.12500000000E+03  0.80419002446E+02 0. -1.
</event>
<event>
 4    1  0.1590495E-001  0.1250000E+03  0.7546771E-02  0.1126479E+00
        -11   -1    0    0    0    0  0.00000000000E+00  0.00000000000E+00  0.12500000000E+03  0.12500000000E+03  0.00000000000E+00 0.  1.
         11   -1    0    0    0    0 -0.00000000000E+00 -0.00000000000E+00 -0.12500000000E+03  0.12500000000E+03  0.00000000000E+00 0. -1.
         24    1    1    2    0    0  0.79745898131E+02 -0.17900822084E+02  0.49778874492E+02  0.12500000000E+03  0.80419002446E+02 0.  1.
        -24    1    1    2    0    0 -0.79745898131E+02  0.17900822084E+02 -0.49778874492E+02  0.12500000000E+03  0.80419002446E+02 0. -1.
</event>
<event>
 4    1  0.1590495E-001  0.1250000E+03  0.7546771E-02  0.1126479E+00
        -11   -1    0    0    0    0  0.00000000000E+00  0.00000000000E+00  0.12500000000E+03  0.12500000000E+03  0.00000000000E+00 0.  1.
         11   -1    0    0    0    0 -0.00000000000E+00 -0.00000000000E+00 -0.12500000000E+03  0.12500000000E+03  0.00000000000E+00 0. -1.
         24    1    1    2    0    0  0.63055838237E+02 -0.44400889853E+02  0.56659564860E+02  0.12500000000E+03  0.80419002446E+02 0.  1.
        -24    1    1    2    0    0 -0.63055838237E+02  0.44400889853E+02 -0.56659564860E+02  0.12500000000E+03  0.80419002446E+02 0. -1.
</event>
<event>
 4    1  0.1590495E-001  0.1250000E+03  0.7546771E-02  0.1126479E+00
        -11   -1    0    0    0    0  0.00000000000E+00  0.00000000000E+00  0.12500000000E+03  0.12500000000E+03  0.00000000000E+00 0.  1.
         11   -1    0    0    0    0 -0.00000000000E+00 -0.00000000000E+00 -0.12500000000E+03  0.12500000000E+03  0.00000000000E+00 0. -1.
         24    1    1    2    0    0 -0.31792299186E+02 -0.89311056089E+02  0.13060207437E+02  0.12500000000E+03  0.80419002446E+02 0.  1.
        -24    1    1    2    0    0  0.31792299186E+02  0.89311056089E+02 -0.13060207437E+02  0.12500000000E+03  0.80419002446E+02 0. -1.
</event>
<event>
 4    1  0.1590495E-001  0.1250000E+03  0.7546771E-02  0.1126479E+00
        -11   -1    0    0    0    0  0.00000000000E+00  0.00000000000E+00  0.12500000000E+03  0.12500000000E+03  0.00000000000E+00 0.  1.
         11   -1    0    0    0    0 -0.00000000000E+00 -0.00000000000E+00 -0.12500000000E+03  0.12500000000E+03  0.00000000000E+00 0. -1.
         24    1    1    2    0    0 -0.58697077860E+02 -0.20227005551E+02  0.72823796541E+02  0.12500000000E+03  0.80419002446E+02 0.  1.
        -24    1    1    2    0    0  0.58697077860E+02  0.20227005551E+02 -0.72823796541E+02  0.12500000000E+03  0.80419002446E+02 0. -1.
</event>
<event>
 4    1  0.1590495E-001  0.1250000E+03  0.7546771E-02  0.1126479E+00
        -11   -1    0    0    0    0  0.00000000000E+00  0.00000000000E+00  0.12500000000E+03  0.12500000000E+03  0.00000000000E+00 0.  1.
         11   -1    0    0    0    0 -0.00000000000E+00 -0.00000000000E+00 -0.12500000000E+03  0.12500000000E+03  0.00000000000E+00 0. -1.
         24    1    1    2    0    0 -0.15398487416E+01  0.28591626237E+02  0.91312276396E+02  0.12500000000E+03  0.80419002446E+02 0.  1.
        -24    1    1    2    0    0  0.15398487416E+01 -0.28591626237E+02 -0.91312276396E+02  0.12500000000E+03  0.80419002446E+02 0. -1.
</event>
<event>
 4    1  0.1590495E-001  0.1250000E+03  0.7546771E-02  0.1126479E+00
        -11   -1    0    0    0    0  0.00000000000E+00  0.00000000000E+00  0.12500000000E+03  0.12500000000E+03  0.00000000000E+00 0.  1.
         11   -1    0    0    0    0 -0.00000000000E+00 -0.00000000000E+00 -0.12500000000E+03  0.12500000000E+03  0.00000000000E+00 0. -1.
         24    1    1    2    0    0  0.50998137068E+02 -0.34035173870E+02  0.73475036583E+02  0.12500000000E+03  0.80419002446E+02 0.  1.
        -24    1    1    2    0    0 -0.50998137068E+02  0.34035173870E+02 -0.73475036583E+02  0.12500000000E+03  0.80419002446E+02 0. -1.
</event>
<event>
 4    1  0.1590495E-001  0.1250000E+03  0.7546771E-02  0.1126479E+00
        -11   -1    0    0    0    0  0.00000000000E+00  0.00000000000E+00  0.12500000000E+03  0.12500000000E+03  0.00000000000E+00 0.  1.
         11   -1    0    0    0    0 -0.00000000000E+00 -0.00000000000E+00 -0.12500000000E+03  0.12500000000E+03  0.00000000000E+00 0. -1.
         24    1    1    2    0    0 -0.31250145448E+02 -0.82944199066E+01  0.90068946111E+02  0.12500000000E+03  0.80419002446E+02 0.  1.
        -24    1    1    2    0    0  0.31250145448E+02  0.82944199066E+01 -0.90068946111E+02  0.12500000000E+03  0.80419002446E+02 0. -1.
</event>
<event>
 4    1  0.1590495E-001  0.1250000E+03  0.7546771E-02  0.1126479E+00
        -11   -1    0    0    0    0  0.00000000000E+00  0.00000000000E+00  0.12500000000E+03  0.12500000000E+03  0.00000000000E+00 0.  1.
         11   -1    0    0    0    0 -0.00000000000E+00 -0.00000000000E+00 -0.12500000000E+03  0.12500000000E+03  0.00000000000E+00 0. -1.
         24    1    1    2    0    0  0.19507149280E+02 -0.75619234080E+02  0.55308106185E+02  0.12500000000E+03  0.80419002446E+02 0.  0.
        -24    1    1    2    0    0 -0.19507149280E+02  0.75619234080E+02 -0.55308106185E+02  0.12500000000E+03  0.80419002446E+02 0.  1.
</event>
<event>
 4    1  0.1590495E-001  0.1250000E+03  0.7546771E-02  0.1126479E+00
        -11   -1    0    0    0    0  0.00000000000E+00  0.00000000000E+00  0.12500000000E+03  0.12500000000E+03  0.00000000000E+00 0.  1.
         11   -1    0    0    0    0 -0.00000000000E+00 -0.00000000000E+00 -0.12500000000E+03  0.12500000000E+03  0.00000000000E+00 0. -1.
         24    1    1    2    0    0 -0.25091963632E+02 -0.58640850022E+02  0.71340227890E+02  0.12500000000E+03  0.80419002446E+02 0.  1.
        -24    1    1    2    0    0  0.25091963632E+02  0.58640850022E+02 -0.71340227890E+02  0.12500000000E+03  0.80419002446E+02 0. -1.
</event>
<event>
 4    1  0.1590495E-001  0.1250000E+03  0.7546771E-02  0.1126479E+00
        -11   -1    0    0    0    0  0.00000000000E+00  0.00000000000E+00  0.12500000000E+03  0.12500000000E+03  0.00000000000E+00 0.  1.
         11   -1    0    0    0    0 -0.00000000000E+00 -0.00000000000E+00 -0.12500000000E+03  0.12500000000E+03  0.00000000000E+00 0. -1.
         24    1    1    2    0    0  0.86040866625E+02 -0.11002918811E+02  0.40418919997E+02  0.12500000000E+03  0.80419002446E+02 0. -1.
        -24    1    1    2    0    0 -0.86040866625E+02  0.11002918811E+02 -0.40418919997E+02  0.12500000000E+03  0.80419002446E+02 0.  0.
</event>
<event>
 4    1  0.1590495E-001  0.1250000E+03  0.7546771E-02  0.1126479E+00
        -11   -1    0    0    0    0  0.00000000000E+00  0.00000000000E+00  0.12500000000E+03  0.12500000000E+03  0.00000000000E+00 0.  1.
         11   -1    0    0    0    0 -0.00000000000E+00 -0.00000000000E+00 -0.12500000000E+03  0.12500000000E+03  0.00000000000E+00 0. -1.
         24    1    1    2    0    0 -0.59604290461E+02  0.17963694204E+02  0.72680246937E+02  0.12500000000E+03  0.80419002446E+02 0.  1.
        -24    1    1    2    0    0  0.59604290461E+02 -0.17963694204E+02 -0.72680246937E+02  0.12500000000E+03  0.80419002446E+02 0. -1.
</event>
<event>
 4    1  0.1590495E-001  0.1250000E+03  0.7546771E-02  0.1126479E+00
        -11   -1    0    0    0    0  0.00000000000E+00  0.00000000000E+00  0.12500000000E+03  0.12500000000E+03  0.00000000000E+00 0.  1.
         11   -1    0    0    0    0 -0.00000000000E+00 -0.00000000000E+00 -0.12500000000E+03  0.12500000000E+03  0.00000000000E+00 0. -1.
         24    1    1    2    0    0  0.53087644205E+02 -0.48446210797E+02 -0.63185842859E+02  0.12500000000E+03  0.80419002446E+02 0.  0.
        -24    1    1    2    0    0 -0.53087644205E+02  0.48446210797E+02  0.63185842859E+02  0.12500000000E+03  0.80419002446E+02 0. -1.
</event>
<event>
 4    1  0.1590495E-001  0.1250000E+03  0.7546771E-02  0.1126479E+00
        -11   -1    0    0    0    0  0.00000000000E+00  0.00000000000E+00  0.12500000000E+03  0.12500000000E+03  0.00000000000E+00 0.  1.
         11   -1    0    0    0    0 -0.00000000000E+00 -0.00000000000E+00 -0.12500000000E+03  0.12500000000E+03  0.00000000000E+00 0. -1.
         24    1    1    2    0    0 -0.18341859364E+02 -0.67584577264E+02  0.65220281790E+02  0.12500000000E+03  0.80419002446E+02 0.  1.
        -24    1    1    2    0    0  0.18341859364E+02  0.67584577264E+02 -0.65220281790E+02  0.12500000000E+03  0.80419002446E+02 0. -1.
</event>
<event>
 4    1  0.1590495E-001  0.1250000E+03  0.7546771E-02  0.1126479E+00
        -11   -1    0    0    0    0  0.00000000000E+00  0.00000000000E+00  0.12500000000E+03  0.12500000000E+03  0.00000000000E+00 0.  1.
         11   -1    0    0    0    0 -0.00000000000E+00 -0.00000000000E+00 -0.12500000000E+03  0.12500000000E+03  0.00000000000E+00 0. -1.
         24    1    1    2    0    0  0.95476748685E+02 -0.63798223831E+01 -0.11279948813E+01  0.12500000000E+03  0.80419002446E+02 0.  1.
        -24    1    1    2    0    0 -0.95476748685E+02  0.63798223831E+01  0.11279948813E+01  0.12500000000E+03  0.80419002446E+02 0. -1.
</event>
<event>
 4    1  0.1590495E-001  0.1250000E+03  0.7546771E-02  0.1126479E+00
        -11   -1    0    0    0    0  0.00000000000E+00  0.00000000000E+00  0.12500000000E+03  0.12500000000E+03  0.00000000000E+00 0.  1.
         11   -1    0    0    0    0 -0.00000000000E+00 -0.00000000000E+00 -0.12500000000E+03  0.12500000000E+03  0.00000000000E+00 0. -1.
         24    1    1    2    0    0 -0.42775116625E+02 -0.30837235550E+02  0.79856986839E+02  0.12500000000E+03  0.80419002446E+02 0.  1.
        -24    1    1    2    0    0  0.42775116625E+02  0.30837235550E+02 -0.79856986839E+02  0.12500000000E+03  0.80419002446E+02 0. -1.
</event>
<event>
 4    1  0.1590495E-001  0.1250000E+03  0.7546771E-02  0.1126479E+00
        -11   -1    0    0    0    0  0.00000000000E+00  0.00000000000E+00  0.12500000000E+03  0.12500000000E+03  0.00000000000E+00 0.  1.
         11   -1    0    0    0    0 -0.00000000000E+00 -0.00000000000E+00 -0.12500000000E+03  0.12500000000E+03  0.00000000000E+00 0. -1.
         24    1    1    2    0    0 -0.22540416308E+02  0.36618715005E+02  0.85491422901E+02  0.12500000000E+03  0.80419002446E+02 0.  1.
        -24    1    1    2    0    0  0.22540416308E+02 -0.36618715005E+02 -0.85491422901E+02  0.12500000000E+03  0.80419002446E+02 0. -1.
</event>
<event>
 4    1  0.1590495E-001  0.1250000E+03  0.7546771E-02  0.1126479E+00
        -11   -1    0    0    0    0  0.00000000000E+00  0.00000000000E+00  0.12500000000E+03  0.12500000000E+03  0.00000000000E+00 0.  1.
         11   -1    0    0    0    0 -0.00000000000E+00 -0.00000000000E+00 -0.12500000000E+03  0.12500000000E+03  0.00000000000E+00 0. -1.
         24    1    1    2    0    0 -0.30599913358E+02  0.88222880267E+02 -0.20932098451E+02  0.12500000000E+03  0.80419002446E+02 0.  1.
        -24    1    1    2    0    0  0.30599913358E+02 -0.88222880267E+02  0.20932098451E+02  0.12500000000E+03  0.80419002446E+02 0.  0.
</event>
<event>
 4    1  0.1590495E-001  0.1250000E+03  0.7546771E-02  0.1126479E+00
        -11   -1    0    0    0    0  0.00000000000E+00  0.00000000000E+00  0.12500000000E+03  0.12500000000E+03  0.00000000000E+00 0.  1.
         11   -1    0    0    0    0 -0.00000000000E+00 -0.00000000000E+00 -0.12500000000E+03  0.12500000000E+03  0.00000000000E+00 0. -1.
         24    1    1    2    0    0  0.36263793319E+02  0.13377734231E+02  0.87542889869E+02  0.12500000000E+03  0.80419002446E+02 0.  1.
        -24    1    1    2    0    0 -0.36263793319E+02 -0.13377734231E+02 -0.87542889869E+02  0.12500000000E+03  0.80419002446E+02 0. -1.
</event>
<event>
 4    1  0.1590495E-001  0.1250000E+03  0.7546771E-02  0.1126479E+00
        -11   -1    0    0    0    0  0.00000000000E+00  0.00000000000E+00  0.12500000000E+03  0.12500000000E+03  0.00000000000E+00 0.  1.
         11   -1    0    0    0    0 -0.00000000000E+00 -0.00000000000E+00 -0.12500000000E+03  0.12500000000E+03  0.00000000000E+00 0. -1.
         24    1    1    2    0    0  0.27317092689E+02 -0.47647713092E+01  0.91590706117E+02  0.12500000000E+03  0.80419002446E+02 0.  1.
        -24    1    1    2    0    0 -0.27317092689E+02  0.47647713092E+01 -0.91590706117E+02  0.12500000000E+03  0.80419002446E+02 0. -1.
</event>
<event>
 4    1  0.1590495E-001  0.1250000E+03  0.7546771E-02  0.1126479E+00
        -11   -1    0    0    0    0  0.00000000000E+00  0.00000000000E+00  0.12500000000E+03  0.12500000000E+03  0.00000000000E+00 0.  1.
         11   -1    0    0    0    0 -0.00000000000E+00 -0.00000000000E+00 -0.12500000000E+03  0.12500000000E+03  0.00000000000E+00 0. -1.
         24    1    1    2    0    0  0.25565579835E+02 -0.11131692885E+02  0.91543817852E+02  0.12500000000E+03  0.80419002446E+02 0.  1.
        -24    1    1    2    0    0 -0.25565579835E+02  0.11131692885E+02 -0.91543817852E+02  0.12500000000E+03  0.80419002446E+02 0. -1.
</event>
<event>
 4    1  0.1590495E-001  0.1250000E+03  0.7546771E-02  0.1126479E+00
        -11   -1    0    0    0    0  0.00000000000E+00  0.00000000000E+00  0.12500000000E+03  0.12500000000E+03  0.00000000000E+00 0.  1.
         11   -1    0    0    0    0 -0.00000000000E+00 -0.00000000000E+00 -0.12500000000E+03  0.12500000000E+03  0.00000000000E+00 0. -1.
         24    1    1    2    0    0  0.16517016068E+01  0.59630706831E+02  0.74828034388E+02  0.12500000000E+03  0.80419002446E+02 0.  1.
        -24    1    1    2    0    0 -0.16517016068E+01 -0.59630706831E+02 -0.74828034388E+02  0.12500000000E+03  0.80419002446E+02 0. -1.
</event>
<event>
 4    1  0.1590495E-001  0.1250000E+03  0.7546771E-02  0.1126479E+00
        -11   -1    0    0    0    0  0.00000000000E+00  0.00000000000E+00  0.12500000000E+03  0.12500000000E+03  0.00000000000E+00 0.  1.
         11   -1    0    0    0    0 -0.00000000000E+00 -0.00000000000E+00 -0.12500000000E+03  0.12500000000E+03  0.00000000000E+00 0. -1.
         24    1    1    2    0    0 -0.21169391483E+02  0.19520691631E+02  0.91261073345E+02  0.12500000000E+03  0.80419002446E+02 0.  1.
        -24    1    1    2    0    0  0.21169391483E+02 -0.19520691631E+02 -0.91261073345E+02  0.12500000000E+03  0.80419002446E+02 0. -1.
</event>
<event>
 4    1  0.1590495E-001  0.1250000E+03  0.7546771E-02  0.1126479E+00
        -11   -1    0    0    0    0  0.00000000000E+00  0.00000000000E+00  0.12500000000E+03  0.12500000000E+03  0.00000000000E+00 0.  1.
         11   -1    0    0    0    0 -0.00000000000E+00 -0.00000000000E+00 -0.12500000000E+03  0.12500000000E+03  0.00000000000E+00 0. -1.
         24    1    1    2    0    0  0.40232915378E+02 -0.45931618730E+02  0.73684346822E+02  0.12500000000E+03  0.80419002446E+02 0.  1.
        -24    1    1    2    0    0 -0.40232915378E+02  0.45931618730E+02 -0.73684346822E+02  0.12500000000E+03  0.80419002446E+02 0. -1.
</event>
<event>
 4    1  0.1590495E-001  0.1250000E+03  0.7546771E-02  0.1126479E+00
        -11   -1    0    0    0    0  0.00000000000E+00  0.00000000000E+00  0.12500000000E+03  0.12500000000E+03  0.00000000000E+00 0.  1.
         11   -1    0    0    0    0 -0.00000000000E+00 -0.00000000000E+00 -0.12500000000E+03  0.12500000000E+03  0.00000000000E+00 0. -1.
         24    1    1    2    0    0 -0.55372478630E+02 -0.19400898242E+02  0.75599456369E+02  0.12500000000E+03  0.80419002446E+02 0.  1.
        -24    1    1    2    0    0  0.55372478630E+02  0.19400898242E+02 -0.75599456369E+02  0.12500000000E+03  0.80419002446E+02 0. -1.
</event>
<event>
 4    1  0.1590495E-001  0.1250000E+03  0.7546771E-02  0.1126479E+00
        -11   -1    0    0    0    0  0.00000000000E+00  0.00000000000E+00  0.12500000000E+03  0.12500000000E+03  0.00000000000E+00 0.  1.
         11   -1    0    0    0    0 -0.00000000000E+00 -0.00000000000E+00 -0.12500000000E+03  0.12500000000E+03  0.00000000000E+00 0. -1.
         24    1    1    2    0    0 -0.15469267902E+02 -0.12011738003E+02  0.93670720860E+02  0.12500000000E+03  0.80419002446E+02 0.  1.
        -24    1    1    2    0    0  0.15469267902E+02  0.12011738003E+02 -0.93670720860E+02  0.12500000000E+03  0.80419002446E+02 0. -1.
</event>
<event>
 4    1  0.1590495E-001  0.1250000E+03  0.7546771E-02  0.1126479E+00
        -11   -1    0    0    0    0  0.00000000000E+00  0.00000000000E+00  0.12500000000E+03  0.12500000000E+03  0.00000000000E+00 0.  1.
         11   -1    0    0    0    0 -0.00000000000E+00 -0.00000000000E+00 -0.12500000000E+03  0.12500000000E+03  0.00000000000E+00 0. -1.
         24    1    1    2    0    0  0.24433005954E+02  0.16777236820E+02  0.90990859928E+02  0.12500000000E+03  0.80419002446E+02 0.  1.
        -24    1    1    2    0    0 -0.24433005954E+02 -0.16777236820E+02 -0.90990859928E+02  0.12500000000E+03  0.80419002446E+02 0. -1.
</event>
<event>
 4    1  0.1590495E-001  0.1250000E+03  0.7546771E-02  0.1126479E+00
        -11   -1    0    0    0    0  0.00000000000E+00  0.00000000000E+00  0.12500000000E+03  0.12500000000E+03  0.00000000000E+00 0.  1.
         11   -1    0    0    0    0 -0.00000000000E+00 -0.00000000000E+00 -0.12500000000E+03  0.12500000000E+03  0.00000000000E+00 0. -1.
         24    1    1    2    0    0  0.29728666064E+02  0.38471815939E+02  0.82425177210E+02  0.12500000000E+03  0.80419002446E+02 0.  1.
        -24    1    1    2    0    0 -0.29728666064E+02 -0.38471815939E+02 -0.82425177210E+02  0.12500000000E+03  0.80419002446E+02 0. -1.
</event>
<event>
 4    1  0.1590495E-001  0.1250000E+03  0.7546771E-02  0.1126479E+00
        -11   -1    0    0    0    0  0.00000000000E+00  0.00000000000E+00  0.12500000000E+03  0.12500000000E+03  0.00000000000E+00 0.  1.
         11   -1    0    0    0    0 -0.00000000000E+00 -0.00000000000E+00 -0.12500000000E+03  0.12500000000E+03  0.00000000000E+00 0. -1.
         24    1    1    2    0    0  0.54072264241E+02 -0.32132701237E+02  0.72121174399E+02  0.12500000000E+03  0.80419002446E+02 0.  0.
        -24    1    1    2    0    0 -0.54072264241E+02  0.32132701237E+02 -0.72121174399E+02  0.12500000000E+03  0.80419002446E+02 0.  1.
</event>
<event>
 4    1  0.1590495E-001  0.1250000E+03  0.7546771E-02  0.1126479E+00
        -11   -1    0    0    0    0  0.00000000000E+00  0.00000000000E+00  0.12500000000E+03  0.12500000000E+03  0.00000000000E+00 0.  1.
         11   -1    0    0    0    0 -0.00000000000E+00 -0.00000000000E+00 -0.12500000000E+03  0.12500000000E+03  0.00000000000E+00 0. -1.
         24    1    1    2    0    0  0.31686224380E+02 -0.28385165119E+02  0.85720765462E+02  0.12500000000E+03  0.80419002446E+02 0.  1.
        -24    1    1    2    0    0 -0.31686224380E+02  0.28385165119E+02 -0.85720765462E+02  0.12500000000E+03  0.80419002446E+02 0. -1.
</event>
<event>
 4    1  0.1590495E-001  0.1250000E+03  0.7546771E-02  0.1126479E+00
        -11   -1    0    0    0    0  0.00000000000E+00  0.00000000000E+00  0.12500000000E+03  0.12500000000E+03  0.00000000000E+00 0.  1.
         11   -1    0    0    0    0 -0.00000000000E+00 -0.00000000000E+00 -0.12500000000E+03  0.12500000000E+03  0.00000000000E+00 0. -1.
         24    1    1    2    0    0  0.12975395898E+01 -0.72332251470E+02  0.62643003072E+02  0.12500000000E+03  0.80419002446E+02 0. -1.
        -24    1    1    2    0    0 -0.12975395898E+01  0.72332251470E+02 -0.62643003072E+02  0.12500000000E+03  0.80419002446E+02 0.  1.
</event>
<event>
 4    1  0.1590495E-001  0.1250000E+03  0.7546771E-02  0.1126479E+00
        -11   -1    0    0    0    0  0.00000000000E+00  0.00000000000E+00  0.12500000000E+03  0.12500000000E+03  0.00000000000E+00 0.  1.
         11   -1    0    0    0    0 -0.00000000000E+00 -0.00000000000E+00 -0.12500000000E+03  0.12500000000E+03  0.00000000000E+00 0. -1.
         24    1    1    2    0    0  0.23384818102E+02 -0.44358968800E+02  0.81505927484E+02  0.12500000000E+03  0.80419002446E+02 0.  1.
        -24    1    1    2    0    0 -0.23384818102E+02  0.44358968800E+02 -0.81505927484E+02  0.12500000000E+03  0.80419002446E+02 0. -1.
</event>
<event>
 4    1  0.1590495E-001  0.1250000E+03  0.7546771E-02  0.1126479E+00
        -11   -1    0    0    0    0  0.00000000000E+00  0.00000000000E+00  0.12500000000E+03  0.12500000000E+03  0.00000000000E+00 0.  1.
         11   -1    0    0    0    0 -0.00000000000E+00 -0.00000000000E+00 -0.12500000000E+03  0.12500000000E+03  0.00000000000E+00 0. -1.
         24    1    1    2    0    0  0.88819922163E+02  0.77267098882E+00 -0.35611914468E+02  0.12500000000E+03  0.80419002446E+02 0.  0.
        -24    1    1    2    0    0 -0.88819922163E+02 -0.77267098882E+00  0.35611914468E+02  0.12500000000E+03  0.80419002446E+02 0.  0.
</event>
<event>
 4    1  0.1590495E-001  0.1250000E+03  0.7546771E-02  0.1126479E+00
        -11   -1    0    0    0    0  0.00000000000E+00  0.00000000000E+00  0.12500000000E+03  0.12500000000E+03  0.00000000000E+00 0.  1.
         11   -1    0    0    0    0 -0.00000000000E+00 -0.00000000000E+00 -0.12500000000E+03  0.12500000000E+03  0.00000000000E+00 0. -1.
         24    1    1    2    0    0  0.21913816803E+02  0.38011926788E+02  0.85045059237E+02  0.12500000000E+03  0.80419002446E+02 0.  1.
        -24    1    1    2    0    0 -0.21913816803E+02 -0.38011926788E+02 -0.85045059237E+02  0.12500000000E+03  0.80419002446E+02 0. -1.
</event>
<event>
 4    1  0.1590495E-001  0.1250000E+03  0.7546771E-02  0.1126479E+00
        -11   -1    0    0    0    0  0.00000000000E+00  0.00000000000E+00  0.12500000000E+03  0.12500000000E+03  0.00000000000E+00 0.  1.
         11   -1    0    0    0    0 -0.00000000000E+00 -0.00000000000E+00 -0.12500000000E+03  0.12500000000E+03  0.00000000000E+00 0. -1.
         24    1    1    2    0    0  0.27969102333E+02 -0.29926056075E+02  0.86486672546E+02  0.12500000000E+03  0.80419002446E+02 0.  1.
        -24    1    1    2    0    0 -0.27969102333E+02  0.29926056075E+02 -0.86486672546E+02  0.12500000000E+03  0.80419002446E+02 0. -1.
</event>
<event>
 4    1  0.1590495E-001  0.1250000E+03  0.7546771E-02  0.1126479E+00
        -11   -1    0    0    0    0  0.00000000000E+00  0.00000000000E+00  0.12500000000E+03  0.12500000000E+03  0.00000000000E+00 0.  1.
         11   -1    0    0    0    0 -0.00000000000E+00 -0.00000000000E+00 -0.12500000000E+03  0.12500000000E+03  0.00000000000E+00 0. -1.
         24    1    1    2    0    0  0.56444647220E+02 -0.38968554816E+02 -0.66732582607E+02  0.12500000000E+03  0.80419002446E+02 0.  1.
        -24    1    1    2    0    0 -0.56444647220E+02  0.38968554816E+02  0.66732582607E+02  0.12500000000E+03  0.80419002446E+02 0.  0.
</event>
<event>
 4    1  0.1590495E-001  0.1250000E+03  0.7546771E-02  0.1126479E+00
        -11   -1    0    0    0    0  0.00000000000E+00  0.00000000000E+00  0.12500000000E+03  0.12500000000E+03  0.00000000000E+00 0.  1.
         11   -1    0    0    0    0 -0.00000000000E+00 -0.00000000000E+00 -0.12500000000E+03  0.12500000000E+03  0.00000000000E+00 0. -1.
         24    1    1    2    0    0  0.37765721048E+01  0.48984386665E+02  0.82122173691E+02  0.12500000000E+03  0.80419002446E+02 0.  1.
        -24    1    1    2    0    0 -0.37765721048E+01 -0.48984386665E+02 -0.82122173691E+02  0.12500000000E+03  0.80419002446E+02 0. -1.
</event>
<event>
 4    1  0.1590495E-001  0.1250000E+03  0.7546771E-02  0.1126479E+00
        -11   -1    0    0    0    0  0.00000000000E+00  0.00000000000E+00  0.12500000000E+03  0.12500000000E+03  0.00000000000E+00 0.  1.
         11   -1    0    0    0    0 -0.00000000000E+00 -0.00000000000E+00 -0.12500000000E+03  0.12500000000E+03  0.00000000000E+00 0. -1.
         24    1    1    2    0    0 -0.43283338919E+02  0.41792711392E+02  0.74415763734E+02  0.12500000000E+03  0.80419002446E+02 0.  1.
        -24    1    1    2    0    0  0.43283338919E+02 -0.41792711392E+02 -0.74415763734E+02  0.12500000000E+03  0.80419002446E+02 0. -1.
</event>
<event>
 4    1  0.1590495E-001  0.1250000E+03  0.7546771E-02  0.1126479E+00
        -11   -1    0    0    0    0  0.00000000000E+00  0.00000000000E+00  0.12500000000E+03  0.12500000000E+03  0.00000000000E+00 0.  1.
         11   -1    0    0    0    0 -0.00000000000E+00 -0.00000000000E+00 -0.12500000000E+03  0.12500000000E+03  0.00000000000E+00 0. -1.
         24    1    1    2    0    0 -0.43036006333E+02  0.33540261627E+02  0.78617663756E+02  0.12500000000E+03  0.80419002446E+02 0.  1.
        -24    1    1    2    0    0  0.43036006333E+02 -0.33540261627E+02 -0.78617663756E+02  0.12500000000E+03  0.80419002446E+02 0. -1.
</event>
<event>
 4    1  0.1590495E-001  0.1250000E+03  0.7546771E-02  0.1126479E+00
        -11   -1    0    0    0    0  0.00000000000E+00  0.00000000000E+00  0.12500000000E+03  0.12500000000E+03  0.00000000000E+00 0.  1.
         11   -1    0    0    0    0 -0.00000000000E+00 -0.00000000000E+00 -0.12500000000E+03  0.12500000000E+03  0.00000000000E+00 0. -1.
         24    1    1    2    0    0 -0.97432799173E+01 -0.32368265674E+02  0.89527358496E+02  0.12500000000E+03  0.80419002446E+02 0.  0.
        -24    1    1    2    0    0  0.97432799173E+01  0.32368265674E+02 -0.89527358496E+02  0.12500000000E+03  0.80419002446E+02 0.  0.
</event>
<event>
 4    1  0.1590495E-001  0.1250000E+03  0.7546771E-02  0.1126479E+00
        -11   -1    0    0    0    0  0.00000000000E+00  0.00000000000E+00  0.12500000000E+03  0.12500000000E+03  0.00000000000E+00 0.  1.
         11   -1    0    0    0    0 -0.00000000000E+00 -0.00000000000E+00 -0.12500000000E+03  0.12500000000E+03  0.00000000000E+00 0. -1.
         24    1    1    2    0    0  0.27158246747E+02  0.51409537918E+02  0.76008375133E+02  0.12500000000E+03  0.80419002446E+02 0.  1.
        -24    1    1    2    0    0 -0.27158246747E+02 -0.51409537918E+02 -0.76008375133E+02  0.12500000000E+03  0.80419002446E+02 0. -1.
</event>
<event>
 4    1  0.1590495E-001  0.1250000E+03  0.7546771E-02  0.1126479E+00
        -11   -1    0    0    0    0  0.00000000000E+00  0.00000000000E+00  0.12500000000E+03  0.12500000000E+03  0.00000000000E+00 0.  1.
         11   -1    0    0    0    0 -0.00000000000E+00 -0.00000000000E+00 -0.12500000000E+03  0.12500000000E+03  0.00000000000E+00 0. -1.
         24    1    1    2    0    0  0.41191929480E+02  0.91452052023E+01  0.85891642278E+02  0.12500000000E+03  0.80419002446E+02 0.  1.
        -24    1    1    2    0    0 -0.41191929480E+02 -0.91452052023E+01 -0.85891642278E+02  0.12500000000E+03  0.80419002446E+02 0. -1.
</event>
<event>
 4    1  0.1590495E-001  0.1250000E+03  0.7546771E-02  0.1126479E+00
        -11   -1    0    0    0    0  0.00000000000E+00  0.00000000000E+00  0.12500000000E+03  0.12500000000E+03  0.00000000000E+00 0.  1.
         11   -1    0    0    0    0 -0.00000000000E+00 -0.00000000000E+00 -0.12500000000E+03  0.12500000000E+03  0.00000000000E+00 0. -1.
         24    1    1    2    0    0  0.13935936069E+02 -0.39379050209E+02  0.86097991475E+02  0.12500000000E+03  0.80419002446E+02 0.  1.
        -24    1    1    2    0    0 -0.13935936069E+02  0.39379050209E+02 -0.86097991475E+02  0.12500000000E+03  0.80419002446E+02 0. -1.
</event>
<event>
 4    1  0.1590495E-001  0.1250000E+03  0.7546771E-02  0.1126479E+00
        -11   -1    0    0    0    0  0.00000000000E+00  0.00000000000E+00  0.12500000000E+03  0.12500000000E+03  0.00000000000E+00 0.  1.
         11   -1    0    0    0    0 -0.00000000000E+00 -0.00000000000E+00 -0.12500000000E+03  0.12500000000E+03  0.00000000000E+00 0. -1.
         24    1    1    2    0    0  0.44678589431E+01 -0.62836866522E+01  0.95385206212E+02  0.12500000000E+03  0.80419002446E+02 0.  1.
        -24    1    1    2    0    0 -0.44678589431E+01  0.62836866522E+01 -0.95385206212E+02  0.12500000000E+03  0.80419002446E+02 0. -1.
</event>
<event>
 4    1  0.1590495E-001  0.1250000E+03  0.7546771E-02  0.1126479E+00
        -11   -1    0    0    0    0  0.00000000000E+00  0.00000000000E+00  0.12500000000E+03  0.12500000000E+03  0.00000000000E+00 0.  1.
         11   -1    0    0    0    0 -0.00000000000E+00 -0.00000000000E+00 -0.12500000000E+03  0.12500000000E+03  0.00000000000E+00 0. -1.
         24    1    1    2    0    0 -0.43359292952E+02  0.20554174681E+02  0.82796628334E+02  0.12500000000E+03  0.80419002446E+02 0.  1.
        -24    1    1    2    0    0  0.43359292952E+02 -0.20554174681E+02 -0.82796628334E+02  0.12500000000E+03  0.80419002446E+02 0. -1.
</event>
<event>
 4    1  0.1590495E-001  0.1250000E+03  0.7546771E-02  0.1126479E+00
        -11   -1    0    0    0    0  0.00000000000E+00  0.00000000000E+00  0.12500000000E+03  0.12500000000E+03  0.00000000000E+00 0.  1.
         11   -1    0    0    0    0 -0.00000000000E+00 -0.00000000000E+00 -0.12500000000E+03  0.12500000000E+03  0.00000000000E+00 0. -1.
         24    1    1    2    0    0  0.10235262343E+02 -0.58222723751E+01  0.94969071780E+02  0.12500000000E+03  0.80419002446E+02 0.  1.
        -24    1    1    2    0    0 -0.10235262343E+02  0.58222723751E+01 -0.94969071780E+02  0.12500000000E+03  0.80419002446E+02 0. -1.
</event>
<event>
 4    1  0.1590495E-001  0.1250000E+03  0.7546771E-02  0.1126479E+00
        -11   -1    0    0    0    0  0.00000000000E+00  0.00000000000E+00  0.12500000000E+03  0.12500000000E+03  0.00000000000E+00 0.  1.
         11   -1    0    0    0    0 -0.00000000000E+00 -0.00000000000E+00 -0.12500000000E+03  0.12500000000E+03  0.00000000000E+00 0. -1.
         24    1    1    2    0    0  0.48884424107E+02 -0.41383799407E+02  0.71101886557E+02  0.12500000000E+03  0.80419002446E+02 0.  1.
        -24    1    1    2    0    0 -0.48884424107E+02  0.41383799407E+02 -0.71101886557E+02  0.12500000000E+03  0.80419002446E+02 0. -1.
</event>
<event>
 4    1  0.1590495E-001  0.1250000E+03  0.7546771E-02  0.1126479E+00
        -11   -1    0    0    0    0  0.00000000000E+00  0.00000000000E+00  0.12500000000E+03  0.12500000000E+03  0.00000000000E+00 0.  1.
         11   -1    0    0    0    0 -0.00000000000E+00 -0.00000000000E+00 -0.12500000000E+03  0.12500000000E+03  0.00000000000E+00 0. -1.
         24    1    1    2    0    0 -0.12882171249E+02 -0.71773191357E+02  0.61971305553E+02  0.12500000000E+03  0.80419002446E+02 0.  0.
        -24    1    1    2    0    0  0.12882171249E+02  0.71773191357E+02 -0.61971305553E+02  0.12500000000E+03  0.80419002446E+02 0.  1.
</event>
<event>
 4    1  0.1590495E-001  0.1250000E+03  0.7546771E-02  0.1126479E+00
        -11   -1    0    0    0    0  0.00000000000E+00  0.00000000000E+00  0.12500000000E+03  0.12500000000E+03  0.00000000000E+00 0.  1.
         11   -1    0    0    0    0 -0.00000000000E+00 -0.00000000000E+00 -0.12500000000E+03  0.12500000000E+03  0.00000000000E+00 0. -1.
         24    1    1    2    0    0  0.22666450117E+02 -0.13068879374E+02  0.92050097646E+02  0.12500000000E+03  0.80419002446E+02 0.  1.
        -24    1    1    2    0    0 -0.22666450117E+02  0.13068879374E+02 -0.92050097646E+02  0.12500000000E+03  0.80419002446E+02 0. -1.
</event>
<event>
 4    1  0.1590495E-001  0.1250000E+03  0.7546771E-02  0.1126479E+00
        -11   -1    0    0    0    0  0.00000000000E+00  0.00000000000E+00  0.12500000000E+03  0.12500000000E+03  0.00000000000E+00 0.  1.
         11   -1    0    0    0    0 -0.00000000000E+00 -0.00000000000E+00 -0.12500000000E+03  0.12500000000E+03  0.00000000000E+00 0. -1.
         24    1    1    2    0    0 -0.67224599867E+02 -0.15105714219E+02  0.66411253687E+02  0.12500000000E+03  0.80419002446E+02 0.  1.
        -24    1    1    2    0    0  0.67224599867E+02  0.15105714219E+02 -0.66411253687E+02  0.12500000000E+03  0.80419002446E+02 0. -1.
</event>
<event>
 4    1  0.1590495E-001  0.1250000E+03  0.7546771E-02  0.1126479E+00
        -11   -1    0    0    0    0  0.00000000000E+00  0.00000000000E+00  0.12500000000E+03  0.12500000000E+03  0.00000000000E+00 0.  1.
         11   -1    0    0    0    0 -0.00000000000E+00 -0.00000000000E+00 -0.12500000000E+03  0.12500000000E+03  0.00000000000E+00 0. -1.
         24    1    1    2    0    0  0.56704749724E+02  0.54597074191E+02  0.54419802409E+02  0.12500000000E+03  0.80419002446E+02 0.  1.
        -24    1    1    2    0    0 -0.56704749724E+02 -0.54597074191E+02 -0.54419802409E+02  0.12500000000E+03  0.80419002446E+02 0. -1.
</event>
<event>
 4    1  0.1590495E-001  0.1250000E+03  0.7546771E-02  0.1126479E+00
        -11   -1    0    0    0    0  0.00000000000E+00  0.00000000000E+00  0.12500000000E+03  0.12500000000E+03  0.00000000000E+00 0.  1.
         11   -1    0    0    0    0 -0.00000000000E+00 -0.00000000000E+00 -0.12500000000E+03  0.12500000000E+03  0.00000000000E+00 0. -1.
         24    1    1    2    0    0  0.68954744739E-01  0.50200945003E+02  0.81471739957E+02  0.12500000000E+03  0.80419002446E+02 0.  1.
        -24    1    1    2    0    0 -0.68954744739E-01 -0.50200945003E+02 -0.81471739957E+02  0.12500000000E+03  0.80419002446E+02 0. -1.
</event>
<event>
 4    1  0.1590495E-001  0.1250000E+03  0.7546771E-02  0.1126479E+00
        -11   -1    0    0    0    0  0.00000000000E+00  0.00000000000E+00  0.12500000000E+03  0.12500000000E+03  0.00000000000E+00 0. -1.
         11   -1    0    0    0    0 -0.00000000000E+00 -0.00000000000E+00 -0.12500000000E+03  0.12500000000E+03  0.00000000000E+00 0.  1.
         24    1    1    2    0    0  0.32877228498E+02  0.88813454848E+02  0.13749259250E+02  0.12500000000E+03  0.80419002446E+02 0.  0.
        -24    1    1    2    0    0 -0.32877228498E+02 -0.88813454848E+02 -0.13749259250E+02  0.12500000000E+03  0.80419002446E+02 0.  1.
</event>
<event>
 4    1  0.1590495E-001  0.1250000E+03  0.7546771E-02  0.1126479E+00
        -11   -1    0    0    0    0  0.00000000000E+00  0.00000000000E+00  0.12500000000E+03  0.12500000000E+03  0.00000000000E+00 0.  1.
         11   -1    0    0    0    0 -0.00000000000E+00 -0.00000000000E+00 -0.12500000000E+03  0.12500000000E+03  0.00000000000E+00 0. -1.
         24    1    1    2    0    0 -0.54393409358E+00  0.37386750919E+01  0.95621705119E+02  0.12500000000E+03  0.80419002446E+02 0.  1.
        -24    1    1    2    0    0  0.54393409358E+00 -0.37386750919E+01 -0.95621705119E+02  0.12500000000E+03  0.80419002446E+02 0.  0.
</event>
<event>
 4    1  0.1590495E-001  0.1250000E+03  0.7546771E-02  0.1126479E+00
        -11   -1    0    0    0    0  0.00000000000E+00  0.00000000000E+00  0.12500000000E+03  0.12500000000E+03  0.00000000000E+00 0.  1.
         11   -1    0    0    0    0 -0.00000000000E+00 -0.00000000000E+00 -0.12500000000E+03  0.12500000000E+03  0.00000000000E+00 0. -1.
         24    1    1    2    0    0 -0.20811163531E+02 -0.10972123530E+02  0.92759323108E+02  0.12500000000E+03  0.80419002446E+02 0.  1.
        -24    1    1    2    0    0  0.20811163531E+02  0.10972123530E+02 -0.92759323108E+02  0.12500000000E+03  0.80419002446E+02 0. -1.
</event>
<event>
 4    1  0.1590495E-001  0.1250000E+03  0.7546771E-02  0.1126479E+00
        -11   -1    0    0    0    0  0.00000000000E+00  0.00000000000E+00  0.12500000000E+03  0.12500000000E+03  0.00000000000E+00 0.  1.
         11   -1    0    0    0    0 -0.00000000000E+00 -0.00000000000E+00 -0.12500000000E+03  0.12500000000E+03  0.00000000000E+00 0. -1.
         24    1    1    2    0    0 -0.15256908560E+02 -0.14155372199E+02  0.93405761197E+02  0.12500000000E+03  0.80419002446E+02 0.  1.
        -24    1    1    2    0    0  0.15256908560E+02  0.14155372199E+02 -0.93405761197E+02  0.12500000000E+03  0.80419002446E+02 0. -1.
</event>
<event>
 4    1  0.1590495E-001  0.1250000E+03  0.7546771E-02  0.1126479E+00
        -11   -1    0    0    0    0  0.00000000000E+00  0.00000000000E+00  0.12500000000E+03  0.12500000000E+03  0.00000000000E+00 0.  1.
         11   -1    0    0    0    0 -0.00000000000E+00 -0.00000000000E+00 -0.12500000000E+03  0.12500000000E+03  0.00000000000E+00 0. -1.
         24    1    1    2    0    0  0.16030310327E+02  0.12562863156E+02  0.93503944654E+02  0.12500000000E+03  0.80419002446E+02 0.  1.
        -24    1    1    2    0    0 -0.16030310327E+02 -0.12562863156E+02 -0.93503944654E+02  0.12500000000E+03  0.80419002446E+02 0. -1.
</event>
<event>
 4    1  0.1590495E-001  0.1250000E+03  0.7546771E-02  0.1126479E+00
        -11   -1    0    0    0    0  0.00000000000E+00  0.00000000000E+00  0.12500000000E+03  0.12500000000E+03  0.00000000000E+00 0.  1.
         11   -1    0    0    0    0 -0.00000000000E+00 -0.00000000000E+00 -0.12500000000E+03  0.12500000000E+03  0.00000000000E+00 0. -1.
         24    1    1    2    0    0 -0.20966540355E+02  0.39908115659E+02  0.84412857645E+02  0.12500000000E+03  0.80419002446E+02 0.  1.
        -24    1    1    2    0    0  0.20966540355E+02 -0.39908115659E+02 -0.84412857645E+02  0.12500000000E+03  0.80419002446E+02 0. -1.
</event>
<event>
 4    1  0.1590495E-001  0.1250000E+03  0.7546771E-02  0.1126479E+00
        -11   -1    0    0    0    0  0.00000000000E+00  0.00000000000E+00  0.12500000000E+03  0.12500000000E+03  0.00000000000E+00 0.  1.
         11   -1    0    0    0    0 -0.00000000000E+00 -0.00000000000E+00 -0.12500000000E+03  0.12500000000E+03  0.00000000000E+00 0. -1.
         24    1    1    2    0    0  0.79393032257E+02  0.47045978543E+01  0.53220270892E+02  0.12500000000E+03  0.80419002446E+02 0.  0.
        -24    1    1    2    0    0 -0.79393032257E+02 -0.47045978543E+01 -0.53220270892E+02  0.12500000000E+03  0.80419002446E+02 0.  1.
</event>
<event>
 4    1  0.1590495E-001  0.1250000E+03  0.7546771E-02  0.1126479E+00
        -11   -1    0    0    0    0  0.00000000000E+00  0.00000000000E+00  0.12500000000E+03  0.12500000000E+03  0.00000000000E+00 0.  1.
         11   -1    0    0    0    0 -0.00000000000E+00 -0.00000000000E+00 -0.12500000000E+03  0.12500000000E+03  0.00000000000E+00 0. -1.
         24    1    1    2    0    0 -0.51881591206E+01 -0.36559632763E+02  0.88285108047E+02  0.12500000000E+03  0.80419002446E+02 0.  1.
        -24    1    1    2    0    0  0.51881591206E+01  0.36559632763E+02 -0.88285108047E+02  0.12500000000E+03  0.80419002446E+02 0. -1.
</event>
<event>
 4    1  0.1590495E-001  0.1250000E+03  0.7546771E-02  0.1126479E+00
        -11   -1    0    0    0    0  0.00000000000E+00  0.00000000000E+00  0.12500000000E+03  0.12500000000E+03  0.00000000000E+00 0.  1.
         11   -1    0    0    0    0 -0.00000000000E+00 -0.00000000000E+00 -0.12500000000E+03  0.12500000000E+03  0.00000000000E+00 0. -1.
         24    1    1    2    0    0  0.25419583494E+02  0.24094674782E+02  0.89056585763E+02  0.12500000000E+03  0.80419002446E+02 0.  1.
        -24    1    1    2    0    0 -0.25419583494E+02 -0.24094674782E+02 -0.89056585763E+02  0.12500000000E+03  0.80419002446E+02 0. -1.
</event>
<event>
 4    1  0.1590495E-001  0.1250000E+03  0.7546771E-02  0.1126479E+00
        -11   -1    0    0    0    0  0.00000000000E+00  0.00000000000E+00  0.12500000000E+03  0.12500000000E+03  0.00000000000E+00 0.  1.
         11   -1    0    0    0    0 -0.00000000000E+00 -0.00000000000E+00 -0.12500000000E+03  0.12500000000E+03  0.00000000000E+00 0. -1.
         24    1    1    2    0    0  0.58625984155E+02  0.69162805310E+02  0.30615100672E+02  0.12500000000E+03  0.80419002446E+02 0.  1.
        -24    1    1    2    0    0 -0.58625984155E+02 -0.69162805310E+02 -0.30615100672E+02  0.12500000000E+03  0.80419002446E+02 0. -1.
</event>
<event>
 4    1  0.1590495E-001  0.1250000E+03  0.7546771E-02  0.1126479E+00
        -11   -1    0    0    0    0  0.00000000000E+00  0.00000000000E+00  0.12500000000E+03  0.12500000000E+03  0.00000000000E+00 0.  1.
         11   -1    0    0    0    0 -0.00000000000E+00 -0.00000000000E+00 -0.12500000000E+03  0.12500000000E+03  0.00000000000E+00 0. -1.
         24    1    1    2    0    0 -0.37116057472E+02 -0.36861107235E+02  0.80133894806E+02  0.12500000000E+03  0.80419002446E+02 0.  1.
        -24    1    1    2    0    0  0.37116057472E+02  0.36861107235E+02 -0.80133894806E+02  0.12500000000E+03  0.80419002446E+02 0. -1.
</event>
<event>
 4    1  0.1590495E-001  0.1250000E+03  0.7546771E-02  0.1126479E+00
        -11   -1    0    0    0    0  0.00000000000E+00  0.00000000000E+00  0.12500000000E+03  0.12500000000E+03  0.00000000000E+00 0.  1.
         11   -1    0    0    0    0 -0.00000000000E+00 -0.00000000000E+00 -0.12500000000E+03  0.12500000000E+03  0.00000000000E+00 0. -1.
         24    1    1    2    0    0 -0.10064966253E+02 -0.47995036696E+01  0.95044438367E+02  0.12500000000E+03  0.80419002446E+02 0.  1.
        -24    1    1    2    0    0  0.10064966253E+02  0.47995036696E+01 -0.95044438367E+02  0.12500000000E+03  0.80419002446E+02 0. -1.
</event>
<event>
 4    1  0.1590495E-001  0.1250000E+03  0.7546771E-02  0.1126479E+00
        -11   -1    0    0    0    0  0.00000000000E+00  0.00000000000E+00  0.12500000000E+03  0.12500000000E+03  0.00000000000E+00 0.  1.
         11   -1    0    0    0    0 -0.00000000000E+00 -0.00000000000E+00 -0.12500000000E+03  0.12500000000E+03  0.00000000000E+00 0. -1.
         24    1    1    2    0    0 -0.65669505159E+02 -0.17253791369E+02  0.67435946061E+02  0.12500000000E+03  0.80419002446E+02 0.  1.
        -24    1    1    2    0    0  0.65669505159E+02  0.17253791369E+02 -0.67435946061E+02  0.12500000000E+03  0.80419002446E+02 0. -1.
</event>
<event>
 4    1  0.1590495E-001  0.1250000E+03  0.7546771E-02  0.1126479E+00
        -11   -1    0    0    0    0  0.00000000000E+00  0.00000000000E+00  0.12500000000E+03  0.12500000000E+03  0.00000000000E+00 0.  1.
         11   -1    0    0    0    0 -0.00000000000E+00 -0.00000000000E+00 -0.12500000000E+03  0.12500000000E+03  0.00000000000E+00 0. -1.
         24    1    1    2    0    0 -0.22626749128E+02 -0.35690481246E+02  0.85860373968E+02  0.12500000000E+03  0.80419002446E+02 0.  0.
        -24    1    1    2    0    0  0.22626749128E+02  0.35690481246E+02 -0.85860373968E+02  0.12500000000E+03  0.80419002446E+02 0.  0.
</event>
<event>
 4    1  0.1590495E-001  0.1250000E+03  0.7546771E-02  0.1126479E+00
        -11   -1    0    0    0    0  0.00000000000E+00  0.00000000000E+00  0.12500000000E+03  0.12500000000E+03  0.00000000000E+00 0.  1.
         11   -1    0    0    0    0 -0.00000000000E+00 -0.00000000000E+00 -0.12500000000E+03  0.12500000000E+03  0.00000000000E+00 0. -1.
         24    1    1    2    0    0  0.21390488419E+02 -0.18344345423E+02  0.91453354459E+02  0.12500000000E+03  0.80419002446E+02 0.  1.
        -24    1    1    2    0    0 -0.21390488419E+02  0.18344345423E+02 -0.91453354459E+02  0.12500000000E+03  0.80419002446E+02 0. -1.
</event>
<event>
 4    1  0.1590495E-001  0.1250000E+03  0.7546771E-02  0.1126479E+00
        -11   -1    0    0    0    0  0.00000000000E+00  0.00000000000E+00  0.12500000000E+03  0.12500000000E+03  0.00000000000E+00 0.  1.
         11   -1    0    0    0    0 -0.00000000000E+00 -0.00000000000E+00 -0.12500000000E+03  0.12500000000E+03  0.00000000000E+00 0. -1.
         24    1    1    2    0    0 -0.13058706628E+01  0.29665201347E+02  0.90972823285E+02  0.12500000000E+03  0.80419002446E+02 0. -1.
        -24    1    1    2    0    0  0.13058706628E+01 -0.29665201347E+02 -0.90972823285E+02  0.12500000000E+03  0.80419002446E+02 0. -1.
</event>
<event>
 4    1  0.1590495E-001  0.1250000E+03  0.7546771E-02  0.1126479E+00
        -11   -1    0    0    0    0  0.00000000000E+00  0.00000000000E+00  0.12500000000E+03  0.12500000000E+03  0.00000000000E+00 0.  1.
         11   -1    0    0    0    0 -0.00000000000E+00 -0.00000000000E+00 -0.12500000000E+03  0.12500000000E+03  0.00000000000E+00 0. -1.
         24    1    1    2    0    0 -0.55728244405E+02 -0.60240866830E+01  0.77561957175E+02  0.12500000000E+03  0.80419002446E+02 0.  1.
        -24    1    1    2    0    0  0.55728244405E+02  0.60240866830E+01 -0.77561957175E+02  0.12500000000E+03  0.80419002446E+02 0. -1.
</event>
<event>
 4    1  0.1590495E-001  0.1250000E+03  0.7546771E-02  0.1126479E+00
        -11   -1    0    0    0    0  0.00000000000E+00  0.00000000000E+00  0.12500000000E+03  0.12500000000E+03  0.00000000000E+00 0.  1.
         11   -1    0    0    0    0 -0.00000000000E+00 -0.00000000000E+00 -0.12500000000E+03  0.12500000000E+03  0.00000000000E+00 0. -1.
         24    1    1    2    0    0 -0.96803153569E+01  0.89398683917E+02  0.32740660563E+02  0.12500000000E+03  0.80419002446E+02 0.  0.
        -24    1    1    2    0    0  0.96803153569E+01 -0.89398683917E+02 -0.32740660563E+02  0.12500000000E+03  0.80419002446E+02 0. -1.
</event>
<event>
 4    1  0.1590495E-001  0.1250000E+03  0.7546771E-02  0.1126479E+00
        -11   -1    0    0    0    0  0.00000000000E+00  0.00000000000E+00  0.12500000000E+03  0.12500000000E+03  0.00000000000E+00 0.  1.
         11   -1    0    0    0    0 -0.00000000000E+00 -0.00000000000E+00 -0.12500000000E+03  0.12500000000E+03  0.00000000000E+00 0. -1.
         24    1    1    2    0    0  0.26539975363E+02 -0.78414304126E+02  0.48006360639E+02  0.12500000000E+03  0.80419002446E+02 0. -1.
        -24    1    1    2    0    0 -0.26539975363E+02  0.78414304126E+02 -0.48006360639E+02  0.12500000000E+03  0.80419002446E+02 0.  1.
</event>
<event>
 4    1  0.1590495E-001  0.1250000E+03  0.7546771E-02  0.1126479E+00
        -11   -1    0    0    0    0  0.00000000000E+00  0.00000000000E+00  0.12500000000E+03  0.12500000000E+03  0.00000000000E+00 0.  1.
         11   -1    0    0    0    0 -0.00000000000E+00 -0.00000000000E+00 -0.12500000000E+03  0.12500000000E+03  0.00000000000E+00 0. -1.
         24    1    1    2    0    0 -0.89384189992E+02  0.34062142600E+02  0.28321487588E+01  0.12500000000E+03  0.80419002446E+02 0.  0.
        -24    1    1    2    0    0  0.89384189992E+02 -0.34062142600E+02 -0.28321487588E+01  0.12500000000E+03  0.80419002446E+02 0. -1.
</event>
<event>
 4    1  0.1590495E-001  0.1250000E+03  0.7546771E-02  0.1126479E+00
        -11   -1    0    0    0    0  0.00000000000E+00  0.00000000000E+00  0.12500000000E+03  0.12500000000E+03  0.00000000000E+00 0.  1.
         11   -1    0    0    0    0 -0.00000000000E+00 -0.00000000000E+00 -0.12500000000E+03  0.12500000000E+03  0.00000000000E+00 0. -1.
         24    1    1    2    0    0 -0.56521646260E+02  0.62381448621E+02 -0.45515298721E+02  0.12500000000E+03  0.80419002446E+02 0. -1.
        -24    1    1    2    0    0  0.56521646260E+02 -0.62381448621E+02  0.45515298721E+02  0.12500000000E+03  0.80419002446E+02 0.  1.
</event>
<event>
 4    1  0.1590495E-001  0.1250000E+03  0.7546771E-02  0.1126479E+00
        -11   -1    0    0    0    0  0.00000000000E+00  0.00000000000E+00  0.12500000000E+03  0.12500000000E+03  0.00000000000E+00 0.  1.
         11   -1    0    0    0    0 -0.00000000000E+00 -0.00000000000E+00 -0.12500000000E+03  0.12500000000E+03  0.00000000000E+00 0. -1.
         24    1    1    2    0    0  0.61508144893E+01  0.20337871754E+02  0.93307676529E+02  0.12500000000E+03  0.80419002446E+02 0.  1.
        -24    1    1    2    0    0 -0.61508144893E+01 -0.20337871754E+02 -0.93307676529E+02  0.12500000000E+03  0.80419002446E+02 0. -1.
</event>
<event>
 4    1  0.1590495E-001  0.1250000E+03  0.7546771E-02  0.1126479E+00
        -11   -1    0    0    0    0  0.00000000000E+00  0.00000000000E+00  0.12500000000E+03  0.12500000000E+03  0.00000000000E+00 0.  1.
         11   -1    0    0    0    0 -0.00000000000E+00 -0.00000000000E+00 -0.12500000000E+03  0.12500000000E+03  0.00000000000E+00 0. -1.
         24    1    1    2    0    0  0.20422387726E+02  0.20260335656E+01  0.93469809635E+02  0.12500000000E+03  0.80419002446E+02 0.  1.
        -24    1    1    2    0    0 -0.20422387726E+02 -0.20260335656E+01 -0.93469809635E+02  0.12500000000E+03  0.80419002446E+02 0. -1.
</event>
<event>
 4    1  0.1590495E-001  0.1250000E+03  0.7546771E-02  0.1126479E+00
        -11   -1    0    0    0    0  0.00000000000E+00  0.00000000000E+00  0.12500000000E+03  0.12500000000E+03  0.00000000000E+00 0.  1.
         11   -1    0    0    0    0 -0.00000000000E+00 -0.00000000000E+00 -0.12500000000E+03  0.12500000000E+03  0.00000000000E+00 0. -1.
         24    1    1    2    0    0 -0.18943353945E+02 -0.99223987054E+01  0.93276360300E+02  0.12500000000E+03  0.80419002446E+02 0.  0.
        -24    1    1    2    0    0  0.18943353945E+02  0.99223987054E+01 -0.93276360300E+02  0.12500000000E+03  0.80419002446E+02 0. -1.
</event>
<event>
 4    1  0.1590495E-001  0.1250000E+03  0.7546771E-02  0.1126479E+00
        -11   -1    0    0    0    0  0.00000000000E+00  0.00000000000E+00  0.12500000000E+03  0.12500000000E+03  0.00000000000E+00 0.  1.
         11   -1    0    0    0    0 -0.00000000000E+00 -0.00000000000E+00 -0.12500000000E+03  0.12500000000E+03  0.00000000000E+00 0. -1.
         24    1    1    2    0    0  0.11978980047E+02  0.76982900276E+02 -0.55569066465E+02  0.12500000000E+03  0.80419002446E+02 0.  1.
        -24    1    1    2    0    0 -0.11978980047E+02 -0.76982900276E+02  0.55569066465E+02  0.12500000000E+03  0.80419002446E+02 0.  0.
</event>
<event>
 4    1  0.1590495E-001  0.1250000E+03  0.7546771E-02  0.1126479E+00
        -11   -1    0    0    0    0  0.00000000000E+00  0.00000000000E+00  0.12500000000E+03  0.12500000000E+03  0.00000000000E+00 0.  1.
         11   -1    0    0    0    0 -0.00000000000E+00 -0.00000000000E+00 -0.12500000000E+03  0.12500000000E+03  0.00000000000E+00 0. -1.
         24    1    1    2    0    0 -0.35001556259E+02  0.48934735666E+02  0.74418188304E+02  0.12500000000E+03  0.80419002446E+02 0.  1.
        -24    1    1    2    0    0  0.35001556259E+02 -0.48934735666E+02 -0.74418188304E+02  0.12500000000E+03  0.80419002446E+02 0. -1.
</event>
<event>
 4    1  0.1590495E-001  0.1250000E+03  0.7546771E-02  0.1126479E+00
        -11   -1    0    0    0    0  0.00000000000E+00  0.00000000000E+00  0.12500000000E+03  0.12500000000E+03  0.00000000000E+00 0.  1.
         11   -1    0    0    0    0 -0.00000000000E+00 -0.00000000000E+00 -0.12500000000E+03  0.12500000000E+03  0.00000000000E+00 0. -1.
         24    1    1    2    0    0  0.61920551160E+02 -0.38817735222E+02  0.61780359516E+02  0.12500000000E+03  0.80419002446E+02 0. -1.
        -24    1    1    2    0    0 -0.61920551160E+02  0.38817735222E+02 -0.61780359516E+02  0.12500000000E+03  0.80419002446E+02 0.  0.
</event>
<event>
 4    1  0.1590495E-001  0.1250000E+03  0.7546771E-02  0.1126479E+00
        -11   -1    0    0    0    0  0.00000000000E+00  0.00000000000E+00  0.12500000000E+03  0.12500000000E+03  0.00000000000E+00 0.  1.
         11   -1    0    0    0    0 -0.00000000000E+00 -0.00000000000E+00 -0.12500000000E+03  0.12500000000E+03  0.00000000000E+00 0. -1.
         24    1    1    2    0    0 -0.82959909806E+02 -0.30834952754E+02  0.36395646707E+02  0.12500000000E+03  0.80419002446E+02 0. -1.
        -24    1    1    2    0    0  0.82959909806E+02  0.30834952754E+02 -0.36395646707E+02  0.12500000000E+03  0.80419002446E+02 0.  1.
</event>
<event>
 4    1  0.1590495E-001  0.1250000E+03  0.7546771E-02  0.1126479E+00
        -11   -1    0    0    0    0  0.00000000000E+00  0.00000000000E+00  0.12500000000E+03  0.12500000000E+03  0.00000000000E+00 0.  1.
         11   -1    0    0    0    0 -0.00000000000E+00 -0.00000000000E+00 -0.12500000000E+03  0.12500000000E+03  0.00000000000E+00 0. -1.
         24    1    1    2    0    0  0.28097926365E+02 -0.33910723176E+02  0.84960893553E+02  0.12500000000E+03  0.80419002446E+02 0.  1.
        -24    1    1    2    0    0 -0.28097926365E+02  0.33910723176E+02 -0.84960893553E+02  0.12500000000E+03  0.80419002446E+02 0. -1.
</event>
<event>
 4    1  0.1590495E-001  0.1250000E+03  0.7546771E-02  0.1126479E+00
        -11   -1    0    0    0    0  0.00000000000E+00  0.00000000000E+00  0.12500000000E+03  0.12500000000E+03  0.00000000000E+00 0.  1.
         11   -1    0    0    0    0 -0.00000000000E+00 -0.00000000000E+00 -0.12500000000E+03  0.12500000000E+03  0.00000000000E+00 0. -1.
         24    1    1    2    0    0 -0.39742417954E+02  0.31207366694E+02  0.81267610552E+02  0.12500000000E+03  0.80419002446E+02 0. -1.
        -24    1    1    2    0    0  0.39742417954E+02 -0.31207366694E+02 -0.81267610552E+02  0.12500000000E+03  0.80419002446E+02 0.  1.
</event>
<event>
 4    1  0.1590495E-001  0.1250000E+03  0.7546771E-02  0.1126479E+00
        -11   -1    0    0    0    0  0.00000000000E+00  0.00000000000E+00  0.12500000000E+03  0.12500000000E+03  0.00000000000E+00 0.  1.
         11   -1    0    0    0    0 -0.00000000000E+00 -0.00000000000E+00 -0.12500000000E+03  0.12500000000E+03  0.00000000000E+00 0. -1.
         24    1    1    2    0    0 -0.41084661757E+02  0.85211223266E+02 -0.14452752106E+02  0.12500000000E+03  0.80419002446E+02 0.  1.
        -24    1    1    2    0    0  0.41084661757E+02 -0.85211223266E+02  0.14452752106E+02  0.12500000000E+03  0.80419002446E+02 0. -1.
</event>
<event>
 4    1  0.1590495E-001  0.1250000E+03  0.7546771E-02  0.1126479E+00
        -11   -1    0    0    0    0  0.00000000000E+00  0.00000000000E+00  0.12500000000E+03  0.12500000000E+03  0.00000000000E+00 0.  1.
         11   -1    0    0    0    0 -0.00000000000E+00 -0.00000000000E+00 -0.12500000000E+03  0.12500000000E+03  0.00000000000E+00 0. -1.
         24    1    1    2    0    0  0.42309619145E+01  0.12087169764E+02  0.94835559438E+02  0.12500000000E+03  0.80419002446E+02 0.  0.
        -24    1    1    2    0    0 -0.42309619145E+01 -0.12087169764E+02 -0.94835559438E+02  0.12500000000E+03  0.80419002446E+02 0. -1.
</event>
<event>
 4    1  0.1590495E-001  0.1250000E+03  0.7546771E-02  0.1126479E+00
        -11   -1    0    0    0    0  0.00000000000E+00  0.00000000000E+00  0.12500000000E+03  0.12500000000E+03  0.00000000000E+00 0.  1.
         11   -1    0    0    0    0 -0.00000000000E+00 -0.00000000000E+00 -0.12500000000E+03  0.12500000000E+03  0.00000000000E+00 0. -1.
         24    1    1    2    0    0 -0.85882762399E+02  0.17443189983E+02 -0.38440477255E+02  0.12500000000E+03  0.80419002446E+02 0. -1.
        -24    1    1    2    0    0  0.85882762399E+02 -0.17443189983E+02  0.38440477255E+02  0.12500000000E+03  0.80419002446E+02 0.  1.
</event>
<event>
 4    1  0.1590495E-001  0.1250000E+03  0.7546771E-02  0.1126479E+00
        -11   -1    0    0    0    0  0.00000000000E+00  0.00000000000E+00  0.12500000000E+03  0.12500000000E+03  0.00000000000E+00 0.  1.
         11   -1    0    0    0    0 -0.00000000000E+00 -0.00000000000E+00 -0.12500000000E+03  0.12500000000E+03  0.00000000000E+00 0. -1.
         24    1    1    2    0    0 -0.30788021558E+02  0.24290997606E+02  0.87291633101E+02  0.12500000000E+03  0.80419002446E+02 0.  1.
        -24    1    1    2    0    0  0.30788021558E+02 -0.24290997606E+02 -0.87291633101E+02  0.12500000000E+03  0.80419002446E+02 0. -1.
</event>
<event>
 4    1  0.1590495E-001  0.1250000E+03  0.7546771E-02  0.1126479E+00
        -11   -1    0    0    0    0  0.00000000000E+00  0.00000000000E+00  0.12500000000E+03  0.12500000000E+03  0.00000000000E+00 0.  1.
         11   -1    0    0    0    0 -0.00000000000E+00 -0.00000000000E+00 -0.12500000000E+03  0.12500000000E+03  0.00000000000E+00 0. -1.
         24    1    1    2    0    0  0.17183774171E+02  0.67504732752E+02  0.65617170062E+02  0.12500000000E+03  0.80419002446E+02 0.  1.
        -24    1    1    2    0    0 -0.17183774171E+02 -0.67504732752E+02 -0.65617170062E+02  0.12500000000E+03  0.80419002446E+02 0. -1.
</event>
<event>
 4    1  0.1590495E-001  0.1250000E+03  0.7546771E-02  0.1126479E+00
        -11   -1    0    0    0    0  0.00000000000E+00  0.00000000000E+00  0.12500000000E+03  0.12500000000E+03  0.00000000000E+00 0. -1.
         11   -1    0    0    0    0 -0.00000000000E+00 -0.00000000000E+00 -0.12500000000E+03  0.12500000000E+03  0.00000000000E+00 0.  1.
         24    1    1    2    0    0  0.30508313390E+02 -0.89606675348E+02 -0.14059537434E+02  0.12500000000E+03  0.80419002446E+02 0.  1.
        -24    1    1    2    0    0 -0.30508313390E+02  0.89606675348E+02  0.14059537434E+02  0.12500000000E+03  0.80419002446E+02 0.  0.
</event>
<event>
 4    1  0.1590495E-001  0.1250000E+03  0.7546771E-02  0.1126479E+00
        -11   -1    0    0    0    0  0.00000000000E+00  0.00000000000E+00  0.12500000000E+03  0.12500000000E+03  0.00000000000E+00 0.  1.
         11   -1    0    0    0    0 -0.00000000000E+00 -0.00000000000E+00 -0.12500000000E+03  0.12500000000E+03  0.00000000000E+00 0. -1.
         24    1    1    2    0    0 -0.74587352448E+02 -0.20767772295E+02  0.56242426461E+02  0.12500000000E+03  0.80419002446E+02 0.  1.
        -24    1    1    2    0    0  0.74587352448E+02  0.20767772295E+02 -0.56242426461E+02  0.12500000000E+03  0.80419002446E+02 0. -1.
</event>
<event>
 4    1  0.1590495E-001  0.1250000E+03  0.7546771E-02  0.1126479E+00
        -11   -1    0    0    0    0  0.00000000000E+00  0.00000000000E+00  0.12500000000E+03  0.12500000000E+03  0.00000000000E+00 0.  1.
         11   -1    0    0    0    0 -0.00000000000E+00 -0.00000000000E+00 -0.12500000000E+03  0.12500000000E+03  0.00000000000E+00 0. -1.
         24    1    1    2    0    0 -0.14587031988E+01 -0.94501789794E+02 -0.15002265038E+02  0.12500000000E+03  0.80419002446E+02 0. -1.
        -24    1    1    2    0    0  0.14587031988E+01  0.94501789794E+02  0.15002265038E+02  0.12500000000E+03  0.80419002446E+02 0.  1.
</event>
<event>
 4    1  0.1590495E-001  0.1250000E+03  0.7546771E-02  0.1126479E+00
        -11   -1    0    0    0    0  0.00000000000E+00  0.00000000000E+00  0.12500000000E+03  0.12500000000E+03  0.00000000000E+00 0.  1.
         11   -1    0    0    0    0 -0.00000000000E+00 -0.00000000000E+00 -0.12500000000E+03  0.12500000000E+03  0.00000000000E+00 0. -1.
         24    1    1    2    0    0 -0.65646600602E+02 -0.11173536484E+02  0.68727432350E+02  0.12500000000E+03  0.80419002446E+02 0.  0.
        -24    1    1    2    0    0  0.65646600602E+02  0.11173536484E+02 -0.68727432350E+02  0.12500000000E+03  0.80419002446E+02 0.  1.
</event>
<event>
 4    1  0.1590495E-001  0.1250000E+03  0.7546771E-02  0.1126479E+00
        -11   -1    0    0    0    0  0.00000000000E+00  0.00000000000E+00  0.12500000000E+03  0.12500000000E+03  0.00000000000E+00 0.  1.
         11   -1    0    0    0    0 -0.00000000000E+00 -0.00000000000E+00 -0.12500000000E+03  0.12500000000E+03  0.00000000000E+00 0. -1.
         24    1    1    2    0    0 -0.41553716995E+02  0.24586422900E+02  0.82623123025E+02  0.12500000000E+03  0.80419002446E+02 0.  0.
        -24    1    1    2    0    0  0.41553716995E+02 -0.24586422900E+02 -0.82623123025E+02  0.12500000000E+03  0.80419002446E+02 0.  0.
</event>
<event>
 4    1  0.1590495E-001  0.1250000E+03  0.7546771E-02  0.1126479E+00
        -11   -1    0    0    0    0  0.00000000000E+00  0.00000000000E+00  0.12500000000E+03  0.12500000000E+03  0.00000000000E+00 0.  1.
         11   -1    0    0    0    0 -0.00000000000E+00 -0.00000000000E+00 -0.12500000000E+03  0.12500000000E+03  0.00000000000E+00 0. -1.
         24    1    1    2    0    0 -0.67961382933E+01  0.29829178689E+02  0.90674233654E+02  0.12500000000E+03  0.80419002446E+02 0.  1.
        -24    1    1    2    0    0  0.67961382933E+01 -0.29829178689E+02 -0.90674233654E+02  0.12500000000E+03  0.80419002446E+02 0. -1.
</event>
<event>
 4    1  0.1590495E-001  0.1250000E+03  0.7546771E-02  0.1126479E+00
        -11   -1    0    0    0    0  0.00000000000E+00  0.00000000000E+00  0.12500000000E+03  0.12500000000E+03  0.00000000000E+00 0.  1.
         11   -1    0    0    0    0 -0.00000000000E+00 -0.00000000000E+00 -0.12500000000E+03  0.12500000000E+03  0.00000000000E+00 0. -1.
         24    1    1    2    0    0 -0.40412226312E+02 -0.32392322425E+02  0.80469705219E+02  0.12500000000E+03  0.80419002446E+02 0. -1.
        -24    1    1    2    0    0  0.40412226312E+02  0.32392322425E+02 -0.80469705219E+02  0.12500000000E+03  0.80419002446E+02 0. -1.
</event>
<event>
 4    1  0.1590495E-001  0.1250000E+03  0.7546771E-02  0.1126479E+00
        -11   -1    0    0    0    0  0.00000000000E+00  0.00000000000E+00  0.12500000000E+03  0.12500000000E+03  0.00000000000E+00 0.  1.
         11   -1    0    0    0    0 -0.00000000000E+00 -0.00000000000E+00 -0.12500000000E+03  0.12500000000E+03  0.00000000000E+00 0. -1.
         24    1    1    2    0    0 -0.19274856362E+02  0.68678805388E+02  0.63792520317E+02  0.12500000000E+03  0.80419002446E+02 0.  1.
        -24    1    1    2    0    0  0.19274856362E+02 -0.68678805388E+02 -0.63792520317E+02  0.12500000000E+03  0.80419002446E+02 0. -1.
</event>
<event>
 4    1  0.1590495E-001  0.1250000E+03  0.7546771E-02  0.1126479E+00
        -11   -1    0    0    0    0  0.00000000000E+00  0.00000000000E+00  0.12500000000E+03  0.12500000000E+03  0.00000000000E+00 0.  1.
         11   -1    0    0    0    0 -0.00000000000E+00 -0.00000000000E+00 -0.12500000000E+03  0.12500000000E+03  0.00000000000E+00 0. -1.
         24    1    1    2    0    0  0.85385484114E+01  0.22363898225E+02  0.92653835824E+02  0.12500000000E+03  0.80419002446E+02 0.  1.
        -24    1    1    2    0    0 -0.85385484114E+01 -0.22363898225E+02 -0.92653835824E+02  0.12500000000E+03  0.80419002446E+02 0.  0.
</event>
<event>
 4    1  0.1590495E-001  0.1250000E+03  0.7546771E-02  0.1126479E+00
        -11   -1    0    0    0    0  0.00000000000E+00  0.00000000000E+00  0.12500000000E+03  0.12500000000E+03  0.00000000000E+00 0.  1.
         11   -1    0    0    0    0 -0.00000000000E+00 -0.00000000000E+00 -0.12500000000E+03  0.12500000000E+03  0.00000000000E+00 0. -1.
         24    1    1    2    0    0 -0.21496491333E+02 -0.32039431864E+02  0.87573738711E+02  0.12500000000E+03  0.80419002446E+02 0.  1.
        -24    1    1    2    0    0  0.21496491333E+02  0.32039431864E+02 -0.87573738711E+02  0.12500000000E+03  0.80419002446E+02 0. -1.
</event>
<event>
 4    1  0.1590495E-001  0.1250000E+03  0.7546771E-02  0.1126479E+00
        -11   -1    0    0    0    0  0.00000000000E+00  0.00000000000E+00  0.12500000000E+03  0.12500000000E+03  0.00000000000E+00 0.  1.
         11   -1    0    0    0    0 -0.00000000000E+00 -0.00000000000E+00 -0.12500000000E+03  0.12500000000E+03  0.00000000000E+00 0. -1.
         24    1    1    2    0    0 -0.42717153018E+02  0.47440465909E+01  0.85501595924E+02  0.12500000000E+03  0.80419002446E+02 0.  1.
        -24    1    1    2    0    0  0.42717153018E+02 -0.47440465909E+01 -0.85501595924E+02  0.12500000000E+03  0.80419002446E+02 0. -1.
</event>
<event>
 4    1  0.1590495E-001  0.1250000E+03  0.7546771E-02  0.1126479E+00
        -11   -1    0    0    0    0  0.00000000000E+00  0.00000000000E+00  0.12500000000E+03  0.12500000000E+03  0.00000000000E+00 0.  1.
         11   -1    0    0    0    0 -0.00000000000E+00 -0.00000000000E+00 -0.12500000000E+03  0.12500000000E+03  0.00000000000E+00 0. -1.
         24    1    1    2    0    0  0.38099818463E+02 -0.62697158147E+01  0.87560713464E+02  0.12500000000E+03  0.80419002446E+02 0.  1.
        -24    1    1    2    0    0 -0.38099818463E+02  0.62697158147E+01 -0.87560713464E+02  0.12500000000E+03  0.80419002446E+02 0. -1.
</event>
<event>
 4    1  0.1590495E-001  0.1250000E+03  0.7546771E-02  0.1126479E+00
        -11   -1    0    0    0    0  0.00000000000E+00  0.00000000000E+00  0.12500000000E+03  0.12500000000E+03  0.00000000000E+00 0.  1.
         11   -1    0    0    0    0 -0.00000000000E+00 -0.00000000000E+00 -0.12500000000E+03  0.12500000000E+03  0.00000000000E+00 0. -1.
         24    1    1    2    0    0  0.62242922252E+02 -0.12029295644E+02  0.71686112473E+02  0.12500000000E+03  0.80419002446E+02 0.  1.
        -24    1    1    2    0    0 -0.62242922252E+02  0.12029295644E+02 -0.71686112473E+02  0.12500000000E+03  0.80419002446E+02 0. -1.
</event>
<event>
 4    1  0.1590495E-001  0.1250000E+03  0.7546771E-02  0.1126479E+00
        -11   -1    0    0    0    0  0.00000000000E+00  0.00000000000E+00  0.12500000000E+03  0.12500000000E+03  0.00000000000E+00 0.  1.
         11   -1    0    0    0    0 -0.00000000000E+00 -0.00000000000E+00 -0.12500000000E+03  0.12500000000E+03  0.00000000000E+00 0. -1.
         24    1    1    2    0    0  0.21580425401E+02 -0.34989596394E+02  0.86416418748E+02  0.12500000000E+03  0.80419002446E+02 0.  1.
        -24    1    1    2    0    0 -0.21580425401E+02  0.34989596394E+02 -0.86416418748E+02  0.12500000000E+03  0.80419002446E+02 0. -1.
</event>
<event>
 4    1  0.1590495E-001  0.1250000E+03  0.7546771E-02  0.1126479E+00
        -11   -1    0    0    0    0  0.00000000000E+00  0.00000000000E+00  0.12500000000E+03  0.12500000000E+03  0.00000000000E+00 0.  1.
         11   -1    0    0    0    0 -0.00000000000E+00 -0.00000000000E+00 -0.12500000000E+03  0.12500000000E+03  0.00000000000E+00 0. -1.
         24    1    1    2    0    0  0.20867926453E+02 -0.14274220934E+02  0.92296047087E+02  0.12500000000E+03  0.80419002446E+02 0.  1.
        -24    1    1    2    0    0 -0.20867926453E+02  0.14274220934E+02 -0.92296047087E+02  0.12500000000E+03  0.80419002446E+02 0. -1.
</event>
<event>
 4    1  0.1590495E-001  0.1250000E+03  0.7546771E-02  0.1126479E+00
        -11   -1    0    0    0    0  0.00000000000E+00  0.00000000000E+00  0.12500000000E+03  0.12500000000E+03  0.00000000000E+00 0.  1.
         11   -1    0    0    0    0 -0.00000000000E+00 -0.00000000000E+00 -0.12500000000E+03  0.12500000000E+03  0.00000000000E+00 0. -1.
         24    1    1    2    0    0  0.14081198753E+01 -0.95542352445E+02 -0.52402417280E+01  0.12500000000E+03  0.80419002446E+02 0. -1.
        -24    1    1    2    0    0 -0.14081198753E+01  0.95542352445E+02  0.52402417280E+01  0.12500000000E+03  0.80419002446E+02 0.  1.
</event>
<event>
 4    1  0.1590495E-001  0.1250000E+03  0.7546771E-02  0.1126479E+00
        -11   -1    0    0    0    0  0.00000000000E+00  0.00000000000E+00  0.12500000000E+03  0.12500000000E+03  0.00000000000E+00 0.  1.
         11   -1    0    0    0    0 -0.00000000000E+00 -0.00000000000E+00 -0.12500000000E+03  0.12500000000E+03  0.00000000000E+00 0. -1.
         24    1    1    2    0    0 -0.40313554865E+02 -0.10745317570E+02  0.86122816315E+02  0.12500000000E+03  0.80419002446E+02 0.  1.
        -24    1    1    2    0    0  0.40313554865E+02  0.10745317570E+02 -0.86122816315E+02  0.12500000000E+03  0.80419002446E+02 0. -1.
</event>
<event>
 4    1  0.1590495E-001  0.1250000E+03  0.7546771E-02  0.1126479E+00
        -11   -1    0    0    0    0  0.00000000000E+00  0.00000000000E+00  0.12500000000E+03  0.12500000000E+03  0.00000000000E+00 0.  1.
         11   -1    0    0    0    0 -0.00000000000E+00 -0.00000000000E+00 -0.12500000000E+03  0.12500000000E+03  0.00000000000E+00 0. -1.
         24    1    1    2    0    0  0.84748220014E+02 -0.24156538738E+02  0.37309313668E+02  0.12500000000E+03  0.80419002446E+02 0. -1.
        -24    1    1    2    0    0 -0.84748220014E+02  0.24156538738E+02 -0.37309313668E+02  0.12500000000E+03  0.80419002446E+02 0.  1.
</event>
<event>
 4    1  0.1590495E-001  0.1250000E+03  0.7546771E-02  0.1126479E+00
        -11   -1    0    0    0    0  0.00000000000E+00  0.00000000000E+00  0.12500000000E+03  0.12500000000E+03  0.00000000000E+00 0.  1.
         11   -1    0    0    0    0 -0.00000000000E+00 -0.00000000000E+00 -0.12500000000E+03  0.12500000000E+03  0.00000000000E+00 0. -1.
         24    1    1    2    0    0 -0.34453376425E+02 -0.11313467736E+01  0.89271882208E+02  0.12500000000E+03  0.80419002446E+02 0.  1.
        -24    1    1    2    0    0  0.34453376425E+02  0.11313467736E+01 -0.89271882208E+02  0.12500000000E+03  0.80419002446E+02 0.  0.
</event>
<event>
 4    1  0.1590495E-001  0.1250000E+03  0.7546771E-02  0.1126479E+00
        -11   -1    0    0    0    0  0.00000000000E+00  0.00000000000E+00  0.12500000000E+03  0.12500000000E+03  0.00000000000E+00 0.  1.
         11   -1    0    0    0    0 -0.00000000000E+00 -0.00000000000E+00 -0.12500000000E+03  0.12500000000E+03  0.00000000000E+00 0. -1.
         24    1    1    2    0    0 -0.70358197224E+02 -0.77484746629E+01  0.64400848360E+02  0.12500000000E+03  0.80419002446E+02 0. -1.
        -24    1    1    2    0    0  0.70358197224E+02  0.77484746629E+01 -0.64400848360E+02  0.12500000000E+03  0.80419002446E+02 0.  1.
</event>
<event>
 4    1  0.1590495E-001  0.1250000E+03  0.7546771E-02  0.1126479E+00
        -11   -1    0    0    0    0  0.00000000000E+00  0.00000000000E+00  0.12500000000E+03  0.12500000000E+03  0.00000000000E+00 0.  1.
         11   -1    0    0    0    0 -0.00000000000E+00 -0.00000000000E+00 -0.12500000000E+03  0.12500000000E+03  0.00000000000E+00 0. -1.
         24    1    1    2    0    0  0.94445363168E+02  0.42500532990E+01 -0.14825466893E+02  0.12500000000E+03  0.80419002446E+02 0. -1.
        -24    1    1    2    0    0 -0.94445363168E+02 -0.42500532990E+01  0.14825466893E+02  0.12500000000E+03  0.80419002446E+02 0.  1.
</event>
<event>
 4    1  0.1590495E-001  0.1250000E+03  0.7546771E-02  0.1126479E+00
        -11   -1    0    0    0    0  0.00000000000E+00  0.00000000000E+00  0.12500000000E+03  0.12500000000E+03  0.00000000000E+00 0.  1.
         11   -1    0    0    0    0 -0.00000000000E+00 -0.00000000000E+00 -0.12500000000E+03  0.12500000000E+03  0.00000000000E+00 0. -1.
         24    1    1    2    0    0  0.18723563610E+02  0.92210614892E+02  0.17447484420E+02  0.12500000000E+03  0.80419002446E+02 0.  1.
        -24    1    1    2    0    0 -0.18723563610E+02 -0.92210614892E+02 -0.17447484420E+02  0.12500000000E+03  0.80419002446E+02 0. -1.
</event>
<event>
 4    1  0.1590495E-001  0.1250000E+03  0.7546771E-02  0.1126479E+00
        -11   -1    0    0    0    0  0.00000000000E+00  0.00000000000E+00  0.12500000000E+03  0.12500000000E+03  0.00000000000E+00 0.  1.
         11   -1    0    0    0    0 -0.00000000000E+00 -0.00000000000E+00 -0.12500000000E+03  0.12500000000E+03  0.00000000000E+00 0. -1.
         24    1    1    2    0    0 -0.40136862459E+01 -0.31427542541E+01  0.95560438802E+02  0.12500000000E+03  0.80419002446E+02 0.  0.
        -24    1    1    2    0    0  0.40136862459E+01  0.31427542541E+01 -0.95560438802E+02  0.12500000000E+03  0.80419002446E+02 0. -1.
</event>
<event>
 4    1  0.1590495E-001  0.1250000E+03  0.7546771E-02  0.1126479E+00
        -11   -1    0    0    0    0  0.00000000000E+00  0.00000000000E+00  0.12500000000E+03  0.12500000000E+03  0.00000000000E+00 0.  1.
         11   -1    0    0    0    0 -0.00000000000E+00 -0.00000000000E+00 -0.12500000000E+03  0.12500000000E+03  0.00000000000E+00 0. -1.
         24    1    1    2    0    0  0.93958703046E+02 -0.11064910617E+01  0.18119653556E+02  0.12500000000E+03  0.80419002446E+02 0. -1.
        -24    1    1    2    0    0 -0.93958703046E+02  0.11064910617E+01 -0.18119653556E+02  0.12500000000E+03  0.80419002446E+02 0.  1.
</event>
<event>
 4    1  0.1590495E-001  0.1250000E+03  0.7546771E-02  0.1126479E+00
        -11   -1    0    0    0    0  0.00000000000E+00  0.00000000000E+00  0.12500000000E+03  0.12500000000E+03  0.00000000000E+00 0.  1.
         11   -1    0    0    0    0 -0.00000000000E+00 -0.00000000000E+00 -0.12500000000E+03  0.12500000000E+03  0.00000000000E+00 0. -1.
         24    1    1    2    0    0  0.28178374264E+02  0.94733904318E+01  0.90961630060E+02  0.12500000000E+03  0.80419002446E+02 0.  1.
        -24    1    1    2    0    0 -0.28178374264E+02 -0.94733904318E+01 -0.90961630060E+02  0.12500000000E+03  0.80419002446E+02 0. -1.
</event>
<event>
 4    1  0.1590495E-001  0.1250000E+03  0.7546771E-02  0.1126479E+00
        -11   -1    0    0    0    0  0.00000000000E+00  0.00000000000E+00  0.12500000000E+03  0.12500000000E+03  0.00000000000E+00 0.  1.
         11   -1    0    0    0    0 -0.00000000000E+00 -0.00000000000E+00 -0.12500000000E+03  0.12500000000E+03  0.00000000000E+00 0. -1.
         24    1    1    2    0    0 -0.22220862755E+02 -0.95623655417E+01  0.92588219927E+02  0.12500000000E+03  0.80419002446E+02 0.  1.
        -24    1    1    2    0    0  0.22220862755E+02  0.95623655417E+01 -0.92588219927E+02  0.12500000000E+03  0.80419002446E+02 0. -1.
</event>
<event>
 4    1  0.1590495E-001  0.1250000E+03  0.7546771E-02  0.1126479E+00
        -11   -1    0    0    0    0  0.00000000000E+00  0.00000000000E+00  0.12500000000E+03  0.12500000000E+03  0.00000000000E+00 0.  1.
         11   -1    0    0    0    0 -0.00000000000E+00 -0.00000000000E+00 -0.12500000000E+03  0.12500000000E+03  0.00000000000E+00 0. -1.
         24    1    1    2    0    0  0.63112718869E+02  0.56410716972E+02  0.44636305552E+02  0.12500000000E+03  0.80419002446E+02 0.  0.
        -24    1    1    2    0    0 -0.63112718869E+02 -0.56410716972E+02 -0.44636305552E+02  0.12500000000E+03  0.80419002446E+02 0.  1.
</event>
<event>
 4    1  0.1590495E-001  0.1250000E+03  0.7546771E-02  0.1126479E+00
        -11   -1    0    0    0    0  0.00000000000E+00  0.00000000000E+00  0.12500000000E+03  0.12500000000E+03  0.00000000000E+00 0.  1.
         11   -1    0    0    0    0 -0.00000000000E+00 -0.00000000000E+00 -0.12500000000E+03  0.12500000000E+03  0.00000000000E+00 0. -1.
         24    1    1    2    0    0 -0.67137784189E+02 -0.23378877757E+02  0.64060362586E+02  0.12500000000E+03  0.80419002446E+02 0.  1.
        -24    1    1    2    0    0  0.67137784189E+02  0.23378877757E+02 -0.64060362586E+02  0.12500000000E+03  0.80419002446E+02 0. -1.
</event>
<event>
 4    1  0.1590495E-001  0.1250000E+03  0.7546771E-02  0.1126479E+00
        -11   -1    0    0    0    0  0.00000000000E+00  0.00000000000E+00  0.12500000000E+03  0.12500000000E+03  0.00000000000E+00 0.  1.
         11   -1    0    0    0    0 -0.00000000000E+00 -0.00000000000E+00 -0.12500000000E+03  0.12500000000E+03  0.00000000000E+00 0. -1.
         24    1    1    2    0    0  0.21278638032E+02  0.40564930580E+02  0.84020771338E+02  0.12500000000E+03  0.80419002446E+02 0.  1.
        -24    1    1    2    0    0 -0.21278638032E+02 -0.40564930580E+02 -0.84020771338E+02  0.12500000000E+03  0.80419002446E+02 0. -1.
</event>
<event>
 4    1  0.1590495E-001  0.1250000E+03  0.7546771E-02  0.1126479E+00
        -11   -1    0    0    0    0  0.00000000000E+00  0.00000000000E+00  0.12500000000E+03  0.12500000000E+03  0.00000000000E+00 0.  1.
         11   -1    0    0    0    0 -0.00000000000E+00 -0.00000000000E+00 -0.12500000000E+03  0.12500000000E+03  0.00000000000E+00 0. -1.
         24    1    1    2    0    0 -0.78750500413E+02  0.43863748969E+02 -0.32126535087E+02  0.12500000000E+03  0.80419002446E+02 0.  1.
        -24    1    1    2    0    0  0.78750500413E+02 -0.43863748969E+02  0.32126535087E+02  0.12500000000E+03  0.80419002446E+02 0.  0.
</event>
<event>
 4    1  0.1590495E-001  0.1250000E+03  0.7546771E-02  0.1126479E+00
        -11   -1    0    0    0    0  0.00000000000E+00  0.00000000000E+00  0.12500000000E+03  0.12500000000E+03  0.00000000000E+00 0.  1.
         11   -1    0    0    0    0 -0.00000000000E+00 -0.00000000000E+00 -0.12500000000E+03  0.12500000000E+03  0.00000000000E+00 0. -1.
         24    1    1    2    0    0 -0.34919889460E+02  0.58213507532E+02  0.67450521915E+02  0.12500000000E+03  0.80419002446E+02 0.  1.
        -24    1    1    2    0    0  0.34919889460E+02 -0.58213507532E+02 -0.67450521915E+02  0.12500000000E+03  0.80419002446E+02 0. -1.
</event>
<event>
 4    1  0.1590495E-001  0.1250000E+03  0.7546771E-02  0.1126479E+00
        -11   -1    0    0    0    0  0.00000000000E+00  0.00000000000E+00  0.12500000000E+03  0.12500000000E+03  0.00000000000E+00 0.  1.
         11   -1    0    0    0    0 -0.00000000000E+00 -0.00000000000E+00 -0.12500000000E+03  0.12500000000E+03  0.00000000000E+00 0. -1.
         24    1    1    2    0    0  0.11583587981E+02 -0.69191792517E+02  0.65085331554E+02  0.12500000000E+03  0.80419002446E+02 0.  0.
        -24    1    1    2    0    0 -0.11583587981E+02  0.69191792517E+02 -0.65085331554E+02  0.12500000000E+03  0.80419002446E+02 0.  1.
</event>
<event>
 4    1  0.1590495E-001  0.1250000E+03  0.7546771E-02  0.1126479E+00
        -11   -1    0    0    0    0  0.00000000000E+00  0.00000000000E+00  0.12500000000E+03  0.12500000000E+03  0.00000000000E+00 0.  1.
         11   -1    0    0    0    0 -0.00000000000E+00 -0.00000000000E+00 -0.12500000000E+03  0.12500000000E+03  0.00000000000E+00 0. -1.
         24    1    1    2    0    0  0.75435673142E+02  0.33134789573E+02  0.48675753544E+02  0.12500000000E+03  0.80419002446E+02 0.  1.
        -24    1    1    2    0    0 -0.75435673142E+02 -0.33134789573E+02 -0.48675753544E+02  0.12500000000E+03  0.80419002446E+02 0. -1.
</event>
<event>
 4    1  0.1590495E-001  0.1250000E+03  0.7546771E-02  0.1126479E+00
        -11   -1    0    0    0    0  0.00000000000E+00  0.00000000000E+00  0.12500000000E+03  0.12500000000E+03  0.00000000000E+00 0.  1.
         11   -1    0    0    0    0 -0.00000000000E+00 -0.00000000000E+00 -0.12500000000E+03  0.12500000000E+03  0.00000000000E+00 0. -1.
         24    1    1    2    0    0  0.16613865861E+02 -0.67626332648E+02  0.65638728198E+02  0.12500000000E+03  0.80419002446E+02 0. -1.
        -24    1    1    2    0    0 -0.16613865861E+02  0.67626332648E+02 -0.65638728198E+02  0.12500000000E+03  0.80419002446E+02 0. -1.
</event>
<event>
 4    1  0.1590495E-001  0.1250000E+03  0.7546771E-02  0.1126479E+00
        -11   -1    0    0    0    0  0.00000000000E+00  0.00000000000E+00  0.12500000000E+03  0.12500000000E+03  0.00000000000E+00 0.  1.
         11   -1    0    0    0    0 -0.00000000000E+00 -0.00000000000E+00 -0.12500000000E+03  0.12500000000E+03  0.00000000000E+00 0. -1.
         24    1    1    2    0    0 -0.28874695323E+02  0.25664963900E+01  0.91200049956E+02  0.12500000000E+03  0.80419002446E+02 0.  1.
        -24    1    1    2    0    0  0.28874695323E+02 -0.25664963900E+01 -0.91200049956E+02  0.12500000000E+03  0.80419002446E+02 0.  0.
</event>
<event>
 4    1  0.1590495E-001  0.1250000E+03  0.7546771E-02  0.1126479E+00
        -11   -1    0    0    0    0  0.00000000000E+00  0.00000000000E+00  0.12500000000E+03  0.12500000000E+03  0.00000000000E+00 0.  1.
         11   -1    0    0    0    0 -0.00000000000E+00 -0.00000000000E+00 -0.12500000000E+03  0.12500000000E+03  0.00000000000E+00 0. -1.
         24    1    1    2    0    0 -0.23691365924E+02  0.29908564142E+02  0.87760931041E+02  0.12500000000E+03  0.80419002446E+02 0.  1.
        -24    1    1    2    0    0  0.23691365924E+02 -0.29908564142E+02 -0.87760931041E+02  0.12500000000E+03  0.80419002446E+02 0. -1.
</event>
<event>
 4    1  0.1590495E-001  0.1250000E+03  0.7546771E-02  0.1126479E+00
        -11   -1    0    0    0    0  0.00000000000E+00  0.00000000000E+00  0.12500000000E+03  0.12500000000E+03  0.00000000000E+00 0.  1.
         11   -1    0    0    0    0 -0.00000000000E+00 -0.00000000000E+00 -0.12500000000E+03  0.12500000000E+03  0.00000000000E+00 0. -1.
         24    1    1    2    0    0 -0.31837831151E+01 -0.87241494369E+01  0.95244615529E+02  0.12500000000E+03  0.80419002446E+02 0.  0.
        -24    1    1    2    0    0  0.31837831151E+01  0.87241494369E+01 -0.95244615529E+02  0.12500000000E+03  0.80419002446E+02 0. -1.
</event>
<event>
 4    1  0.1590495E-001  0.1250000E+03  0.7546771E-02  0.1126479E+00
        -11   -1    0    0    0    0  0.00000000000E+00  0.00000000000E+00  0.12500000000E+03  0.12500000000E+03  0.00000000000E+00 0.  1.
         11   -1    0    0    0    0 -0.00000000000E+00 -0.00000000000E+00 -0.12500000000E+03  0.12500000000E+03  0.00000000000E+00 0. -1.
         24    1    1    2    0    0 -0.54132474812E+02  0.78816454866E+02  0.39275512237E+01  0.12500000000E+03  0.80419002446E+02 0.  1.
        -24    1    1    2    0    0  0.54132474812E+02 -0.78816454866E+02 -0.39275512237E+01  0.12500000000E+03  0.80419002446E+02 0. -1.
</event>
<event>
 4    1  0.1590495E-001  0.1250000E+03  0.7546771E-02  0.1126479E+00
        -11   -1    0    0    0    0  0.00000000000E+00  0.00000000000E+00  0.12500000000E+03  0.12500000000E+03  0.00000000000E+00 0.  1.
         11   -1    0    0    0    0 -0.00000000000E+00 -0.00000000000E+00 -0.12500000000E+03  0.12500000000E+03  0.00000000000E+00 0. -1.
         24    1    1    2    0    0  0.81713908483E+02  0.12582225617E+02  0.48190339329E+02  0.12500000000E+03  0.80419002446E+02 0.  1.
        -24    1    1    2    0    0 -0.81713908483E+02 -0.12582225617E+02 -0.48190339329E+02  0.12500000000E+03  0.80419002446E+02 0. -1.
</event>
<event>
 4    1  0.1590495E-001  0.1250000E+03  0.7546771E-02  0.1126479E+00
        -11   -1    0    0    0    0  0.00000000000E+00  0.00000000000E+00  0.12500000000E+03  0.12500000000E+03  0.00000000000E+00 0.  1.
         11   -1    0    0    0    0 -0.00000000000E+00 -0.00000000000E+00 -0.12500000000E+03  0.12500000000E+03  0.00000000000E+00 0. -1.
         24    1    1    2    0    0 -0.14707584428E+01  0.58444830190E+02  0.75761617850E+02  0.12500000000E+03  0.80419002446E+02 0.  1.
        -24    1    1    2    0    0  0.14707584428E+01 -0.58444830190E+02 -0.75761617850E+02  0.12500000000E+03  0.80419002446E+02 0. -1.
</event>
<event>
 4    1  0.1590495E-001  0.1250000E+03  0.7546771E-02  0.1126479E+00
        -11   -1    0    0    0    0  0.00000000000E+00  0.00000000000E+00  0.12500000000E+03  0.12500000000E+03  0.00000000000E+00 0.  1.
         11   -1    0    0    0    0 -0.00000000000E+00 -0.00000000000E+00 -0.12500000000E+03  0.12500000000E+03  0.00000000000E+00 0. -1.
         24    1    1    2    0    0 -0.31782123184E+02 -0.27145150283E+01  0.90223678154E+02  0.12500000000E+03  0.80419002446E+02 0.  1.
        -24    1    1    2    0    0  0.31782123184E+02  0.27145150283E+01 -0.90223678154E+02  0.12500000000E+03  0.80419002446E+02 0. -1.
</event>
<event>
 4    1  0.1590495E-001  0.1250000E+03  0.7546771E-02  0.1126479E+00
        -11   -1    0    0    0    0  0.00000000000E+00  0.00000000000E+00  0.12500000000E+03  0.12500000000E+03  0.00000000000E+00 0.  1.
         11   -1    0    0    0    0 -0.00000000000E+00 -0.00000000000E+00 -0.12500000000E+03  0.12500000000E+03  0.00000000000E+00 0. -1.
         24    1    1    2    0    0  0.41379693319E+02 -0.33445256225E+02  0.79541937759E+02  0.12500000000E+03  0.80419002446E+02 0.  1.
        -24    1    1    2    0    0 -0.41379693319E+02  0.33445256225E+02 -0.79541937759E+02  0.12500000000E+03  0.80419002446E+02 0. -1.
</event>
<event>
 4    1  0.1590495E-001  0.1250000E+03  0.7546771E-02  0.1126479E+00
        -11   -1    0    0    0    0  0.00000000000E+00  0.00000000000E+00  0.12500000000E+03  0.12500000000E+03  0.00000000000E+00 0.  1.
         11   -1    0    0    0    0 -0.00000000000E+00 -0.00000000000E+00 -0.12500000000E+03  0.12500000000E+03  0.00000000000E+00 0. -1.
         24    1    1    2    0    0  0.93696265235E+01 -0.57495867408E+01  0.95062802382E+02  0.12500000000E+03  0.80419002446E+02 0.  1.
        -24    1    1    2    0    0 -0.93696265235E+01  0.57495867408E+01 -0.95062802382E+02  0.12500000000E+03  0.80419002446E+02 0. -1.
</event>
<event>
 4    1  0.1590495E-001  0.1250000E+03  0.7546771E-02  0.1126479E+00
        -11   -1    0    0    0    0  0.00000000000E+00  0.00000000000E+00  0.12500000000E+03  0.12500000000E+03  0.00000000000E+00 0.  1.
         11   -1    0    0    0    0 -0.00000000000E+00 -0.00000000000E+00 -0.12500000000E+03  0.12500000000E+03  0.00000000000E+00 0. -1.
         24    1    1    2    0    0 -0.60736719414E+02  0.73119548921E+02  0.11061940426E+02  0.12500000000E+03  0.80419002446E+02 0.  1.
        -24    1    1    2    0    0  0.60736719414E+02 -0.73119548921E+02 -0.11061940426E+02  0.12500000000E+03  0.80419002446E+02 0. -1.
</event>
<event>
 4    1  0.1590495E-001  0.1250000E+03  0.7546771E-02  0.1126479E+00
        -11   -1    0    0    0    0  0.00000000000E+00  0.00000000000E+00  0.12500000000E+03  0.12500000000E+03  0.00000000000E+00 0.  1.
         11   -1    0    0    0    0 -0.00000000000E+00 -0.00000000000E+00 -0.12500000000E+03  0.12500000000E+03  0.00000000000E+00 0. -1.
         24    1    1    2    0    0 -0.10741218372E+02  0.72608659409E+02  0.61403524755E+02  0.12500000000E+03  0.80419002446E+02 0.  1.
        -24    1    1    2    0    0  0.10741218372E+02 -0.72608659409E+02 -0.61403524755E+02  0.12500000000E+03  0.80419002446E+02 0. -1.
</event>
<event>
 4    1  0.1590495E-001  0.1250000E+03  0.7546771E-02  0.1126479E+00
        -11   -1    0    0    0    0  0.00000000000E+00  0.00000000000E+00  0.12500000000E+03  0.12500000000E+03  0.00000000000E+00 0.  1.
         11   -1    0    0    0    0 -0.00000000000E+00 -0.00000000000E+00 -0.12500000000E+03  0.12500000000E+03  0.00000000000E+00 0. -1.
         24    1    1    2    0    0 -0.52774758648E+02 -0.52347884519E+02  0.60268630992E+02  0.12500000000E+03  0.80419002446E+02 0. -1.
        -24    1    1    2    0    0  0.52774758648E+02  0.52347884519E+02 -0.60268630992E+02  0.12500000000E+03  0.80419002446E+02 0.  1.
</event>
<event>
 4    1  0.1590495E-001  0.1250000E+03  0.7546771E-02  0.1126479E+00
        -11   -1    0    0    0    0  0.00000000000E+00  0.00000000000E+00  0.12500000000E+03  0.12500000000E+03  0.00000000000E+00 0.  1.
         11   -1    0    0    0    0 -0.00000000000E+00 -0.00000000000E+00 -0.12500000000E+03  0.12500000000E+03  0.00000000000E+00 0. -1.
         24    1    1    2    0    0  0.91054577703E+02  0.72176169824E+01  0.28543894796E+02  0.12500000000E+03  0.80419002446E+02 0. -1.
        -24    1    1    2    0    0 -0.91054577703E+02 -0.72176169824E+01 -0.28543894796E+02  0.12500000000E+03  0.80419002446E+02 0.  1.
</event>
<event>
 4    1  0.1590495E-001  0.1250000E+03  0.7546771E-02  0.1126479E+00
        -11   -1    0    0    0    0  0.00000000000E+00  0.00000000000E+00  0.12500000000E+03  0.12500000000E+03  0.00000000000E+00 0.  1.
         11   -1    0    0    0    0 -0.00000000000E+00 -0.00000000000E+00 -0.12500000000E+03  0.12500000000E+03  0.00000000000E+00 0. -1.
         24    1    1    2    0    0 -0.22219691323E+02 -0.74325032121E+02  0.56034444436E+02  0.12500000000E+03  0.80419002446E+02 0.  1.
        -24    1    1    2    0    0  0.22219691323E+02  0.74325032121E+02 -0.56034444436E+02  0.12500000000E+03  0.80419002446E+02 0.  0.
</event>
<event>
 4    1  0.1590495E-001  0.1250000E+03  0.7546771E-02  0.1126479E+00
        -11   -1    0    0    0    0  0.00000000000E+00  0.00000000000E+00  0.12500000000E+03  0.12500000000E+03  0.00000000000E+00 0.  1.
         11   -1    0    0    0    0 -0.00000000000E+00 -0.00000000000E+00 -0.12500000000E+03  0.12500000000E+03  0.00000000000E+00 0. -1.
         24    1    1    2    0    0 -0.19118151744E+02  0.50159299833E+01  0.93632904291E+02  0.12500000000E+03  0.80419002446E+02 0.  0.
        -24    1    1    2    0    0  0.19118151744E+02 -0.50159299833E+01 -0.93632904291E+02  0.12500000000E+03  0.80419002446E+02 0. -1.
</event>
<event>
 4    1  0.1590495E-001  0.1250000E+03  0.7546771E-02  0.1126479E+00
        -11   -1    0    0    0    0  0.00000000000E+00  0.00000000000E+00  0.12500000000E+03  0.12500000000E+03  0.00000000000E+00 0.  1.
         11   -1    0    0    0    0 -0.00000000000E+00 -0.00000000000E+00 -0.12500000000E+03  0.12500000000E+03  0.00000000000E+00 0. -1.
         24    1    1    2    0    0  0.13043971652E+02 -0.16473963595E+02  0.93360844965E+02  0.12500000000E+03  0.80419002446E+02 0.  1.
        -24    1    1    2    0    0 -0.13043971652E+02  0.16473963595E+02 -0.93360844965E+02  0.12500000000E+03  0.80419002446E+02 0. -1.
</event>
<event>
 4    1  0.1590495E-001  0.1250000E+03  0.7546771E-02  0.1126479E+00
        -11   -1    0    0    0    0  0.00000000000E+00  0.00000000000E+00  0.12500000000E+03  0.12500000000E+03  0.00000000000E+00 0.  1.
         11   -1    0    0    0    0 -0.00000000000E+00 -0.00000000000E+00 -0.12500000000E+03  0.12500000000E+03  0.00000000000E+00 0. -1.
         24    1    1    2    0    0  0.87733990782E+02 -0.37801689183E+02  0.56181137339E+01  0.12500000000E+03  0.80419002446E+02 0. -1.
        -24    1    1    2    0    0 -0.87733990782E+02  0.37801689183E+02 -0.56181137339E+01  0.12500000000E+03  0.80419002446E+02 0.  1.
</event>
<event>
 4    1  0.1590495E-001  0.1250000E+03  0.7546771E-02  0.1126479E+00
        -11   -1    0    0    0    0  0.00000000000E+00  0.00000000000E+00  0.12500000000E+03  0.12500000000E+03  0.00000000000E+00 0.  1.
         11   -1    0    0    0    0 -0.00000000000E+00 -0.00000000000E+00 -0.12500000000E+03  0.12500000000E+03  0.00000000000E+00 0. -1.
         24    1    1    2    0    0 -0.85673342472E+02  0.14509035692E+02  0.40091773702E+02  0.12500000000E+03  0.80419002446E+02 0.  0.
        -24    1    1    2    0    0  0.85673342472E+02 -0.14509035692E+02 -0.40091773702E+02  0.12500000000E+03  0.80419002446E+02 0. -1.
</event>
<event>
 4    1  0.1590495E-001  0.1250000E+03  0.7546771E-02  0.1126479E+00
        -11   -1    0    0    0    0  0.00000000000E+00  0.00000000000E+00  0.12500000000E+03  0.12500000000E+03  0.00000000000E+00 0.  1.
         11   -1    0    0    0    0 -0.00000000000E+00 -0.00000000000E+00 -0.12500000000E+03  0.12500000000E+03  0.00000000000E+00 0. -1.
         24    1    1    2    0    0 -0.31364650195E+02 -0.20717627435E+02  0.88004674178E+02  0.12500000000E+03  0.80419002446E+02 0.  1.
        -24    1    1    2    0    0  0.31364650195E+02  0.20717627435E+02 -0.88004674178E+02  0.12500000000E+03  0.80419002446E+02 0. -1.
</event>
<event>
 4    1  0.1590495E-001  0.1250000E+03  0.7546771E-02  0.1126479E+00
        -11   -1    0    0    0    0  0.00000000000E+00  0.00000000000E+00  0.12500000000E+03  0.12500000000E+03  0.00000000000E+00 0.  1.
         11   -1    0    0    0    0 -0.00000000000E+00 -0.00000000000E+00 -0.12500000000E+03  0.12500000000E+03  0.00000000000E+00 0. -1.
         24    1    1    2    0    0 -0.25104006885E+01  0.67648543458E+02  0.67639903179E+02  0.12500000000E+03  0.80419002446E+02 0.  1.
        -24    1    1    2    0    0  0.25104006885E+01 -0.67648543458E+02 -0.67639903179E+02  0.12500000000E+03  0.80419002446E+02 0. -1.
</event>
<event>
 4    1  0.1590495E-001  0.1250000E+03  0.7546771E-02  0.1126479E+00
        -11   -1    0    0    0    0  0.00000000000E+00  0.00000000000E+00  0.12500000000E+03  0.12500000000E+03  0.00000000000E+00 0.  1.
         11   -1    0    0    0    0 -0.00000000000E+00 -0.00000000000E+00 -0.12500000000E+03  0.12500000000E+03  0.00000000000E+00 0. -1.
         24    1    1    2    0    0 -0.34623638473E+02 -0.86355801426E+02  0.22397840625E+02  0.12500000000E+03  0.80419002446E+02 0.  1.
        -24    1    1    2    0    0  0.34623638473E+02  0.86355801426E+02 -0.22397840625E+02  0.12500000000E+03  0.80419002446E+02 0. -1.
</event>
<event>
 4    1  0.1590495E-001  0.1250000E+03  0.7546771E-02  0.1126479E+00
        -11   -1    0    0    0    0  0.00000000000E+00  0.00000000000E+00  0.12500000000E+03  0.12500000000E+03  0.00000000000E+00 0.  1.
         11   -1    0    0    0    0 -0.00000000000E+00 -0.00000000000E+00 -0.12500000000E+03  0.12500000000E+03  0.00000000000E+00 0. -1.
         24    1    1    2    0    0 -0.14021086648E+02  0.90382763857E+01  0.94231113412E+02  0.12500000000E+03  0.80419002446E+02 0.  1.
        -24    1    1    2    0    0  0.14021086648E+02 -0.90382763857E+01 -0.94231113412E+02  0.12500000000E+03  0.80419002446E+02 0. -1.
</event>
<event>
 4    1  0.1590495E-001  0.1250000E+03  0.7546771E-02  0.1126479E+00
        -11   -1    0    0    0    0  0.00000000000E+00  0.00000000000E+00  0.12500000000E+03  0.12500000000E+03  0.00000000000E+00 0.  1.
         11   -1    0    0    0    0 -0.00000000000E+00 -0.00000000000E+00 -0.12500000000E+03  0.12500000000E+03  0.00000000000E+00 0. -1.
         24    1    1    2    0    0 -0.66348838124E+02 -0.68255541174E+02 -0.98385377113E+01  0.12500000000E+03  0.80419002446E+02 0.  0.
        -24    1    1    2    0    0  0.66348838124E+02  0.68255541174E+02  0.98385377113E+01  0.12500000000E+03  0.80419002446E+02 0. -1.
</event>
<event>
 4    1  0.1590495E-001  0.1250000E+03  0.7546771E-02  0.1126479E+00
        -11   -1    0    0    0    0  0.00000000000E+00  0.00000000000E+00  0.12500000000E+03  0.12500000000E+03  0.00000000000E+00 0.  1.
         11   -1    0    0    0    0 -0.00000000000E+00 -0.00000000000E+00 -0.12500000000E+03  0.12500000000E+03  0.00000000000E+00 0. -1.
         24    1    1    2    0    0 -0.47682562883E+02 -0.21015134456E+02  0.80265318578E+02  0.12500000000E+03  0.80419002446E+02 0.  1.
        -24    1    1    2    0    0  0.47682562883E+02  0.21015134456E+02 -0.80265318578E+02  0.12500000000E+03  0.80419002446E+02 0. -1.
</event>
<event>
 4    1  0.1590495E-001  0.1250000E+03  0.7546771E-02  0.1126479E+00
        -11   -1    0    0    0    0  0.00000000000E+00  0.00000000000E+00  0.12500000000E+03  0.12500000000E+03  0.00000000000E+00 0.  1.
         11   -1    0    0    0    0 -0.00000000000E+00 -0.00000000000E+00 -0.12500000000E+03  0.12500000000E+03  0.00000000000E+00 0. -1.
         24    1    1    2    0    0  0.50455070281E+02  0.25480428576E+02  0.77219283137E+02  0.12500000000E+03  0.80419002446E+02 0. -1.
        -24    1    1    2    0    0 -0.50455070281E+02 -0.25480428576E+02 -0.77219283137E+02  0.12500000000E+03  0.80419002446E+02 0. -1.
</event>
<event>
 4    1  0.1590495E-001  0.1250000E+03  0.7546771E-02  0.1126479E+00
        -11   -1    0    0    0    0  0.00000000000E+00  0.00000000000E+00  0.12500000000E+03  0.12500000000E+03  0.00000000000E+00 0.  1.
         11   -1    0    0    0    0 -0.00000000000E+00 -0.00000000000E+00 -0.12500000000E+03  0.12500000000E+03  0.00000000000E+00 0. -1.
         24    1    1    2    0    0  0.55988319397E+02  0.16507600095E+02  0.75832653098E+02  0.12500000000E+03  0.80419002446E+02 0.  1.
        -24    1    1    2    0    0 -0.55988319397E+02 -0.16507600095E+02 -0.75832653098E+02  0.12500000000E+03  0.80419002446E+02 0. -1.
</event>
<event>
 4    1  0.1590495E-001  0.1250000E+03  0.7546771E-02  0.1126479E+00
        -11   -1    0    0    0    0  0.00000000000E+00  0.00000000000E+00  0.12500000000E+03  0.12500000000E+03  0.00000000000E+00 0.  1.
         11   -1    0    0    0    0 -0.00000000000E+00 -0.00000000000E+00 -0.12500000000E+03  0.12500000000E+03  0.00000000000E+00 0. -1.
         24    1    1    2    0    0 -0.58557941400E+02 -0.65866697907E+01  0.75401374826E+02  0.12500000000E+03  0.80419002446E+02 0.  0.
        -24    1    1    2    0    0  0.58557941400E+02  0.65866697907E+01 -0.75401374826E+02  0.12500000000E+03  0.80419002446E+02 0.  0.
</event>
<event>
 4    1  0.1590495E-001  0.1250000E+03  0.7546771E-02  0.1126479E+00
        -11   -1    0    0    0    0  0.00000000000E+00  0.00000000000E+00  0.12500000000E+03  0.12500000000E+03  0.00000000000E+00 0.  1.
         11   -1    0    0    0    0 -0.00000000000E+00 -0.00000000000E+00 -0.12500000000E+03  0.12500000000E+03  0.00000000000E+00 0. -1.
         24    1    1    2    0    0  0.21545191996E+02 -0.40464752665E+02  0.84001146059E+02  0.12500000000E+03  0.80419002446E+02 0.  1.
        -24    1    1    2    0    0 -0.21545191996E+02  0.40464752665E+02 -0.84001146059E+02  0.12500000000E+03  0.80419002446E+02 0. -1.
</event>
<event>
 4    1  0.1590495E-001  0.1250000E+03  0.7546771E-02  0.1126479E+00
        -11   -1    0    0    0    0  0.00000000000E+00  0.00000000000E+00  0.12500000000E+03  0.12500000000E+03  0.00000000000E+00 0.  1.
         11   -1    0    0    0    0 -0.00000000000E+00 -0.00000000000E+00 -0.12500000000E+03  0.12500000000E+03  0.00000000000E+00 0. -1.
         24    1    1    2    0    0 -0.84545305297E+02  0.32067333413E+02  0.31329882311E+02  0.12500000000E+03  0.80419002446E+02 0.  1.
        -24    1    1    2    0    0  0.84545305297E+02 -0.32067333413E+02 -0.31329882311E+02  0.12500000000E+03  0.80419002446E+02 0. -1.
</event>
<event>
 4    1  0.1590495E-001  0.1250000E+03  0.7546771E-02  0.1126479E+00
        -11   -1    0    0    0    0  0.00000000000E+00  0.00000000000E+00  0.12500000000E+03  0.12500000000E+03  0.00000000000E+00 0.  1.
         11   -1    0    0    0    0 -0.00000000000E+00 -0.00000000000E+00 -0.12500000000E+03  0.12500000000E+03  0.00000000000E+00 0. -1.
         24    1    1    2    0    0  0.50418162804E+02  0.16018508349E+02  0.79744594145E+02  0.12500000000E+03  0.80419002446E+02 0.  1.
        -24    1    1    2    0    0 -0.50418162804E+02 -0.16018508349E+02 -0.79744594145E+02  0.12500000000E+03  0.80419002446E+02 0. -1.
</event>
<event>
 4    1  0.1590495E-001  0.1250000E+03  0.7546771E-02  0.1126479E+00
        -11   -1    0    0    0    0  0.00000000000E+00  0.00000000000E+00  0.12500000000E+03  0.12500000000E+03  0.00000000000E+00 0.  1.
         11   -1    0    0    0    0 -0.00000000000E+00 -0.00000000000E+00 -0.12500000000E+03  0.12500000000E+03  0.00000000000E+00 0. -1.
         24    1    1    2    0    0 -0.36669361417E+02  0.14823915189E+02  0.87140079856E+02  0.12500000000E+03  0.80419002446E+02 0.  1.
        -24    1    1    2    0    0  0.36669361417E+02 -0.14823915189E+02 -0.87140079856E+02  0.12500000000E+03  0.80419002446E+02 0. -1.
</event>
<event>
 4    1  0.1590495E-001  0.1250000E+03  0.7546771E-02  0.1126479E+00
        -11   -1    0    0    0    0  0.00000000000E+00  0.00000000000E+00  0.12500000000E+03  0.12500000000E+03  0.00000000000E+00 0.  1.
         11   -1    0    0    0    0 -0.00000000000E+00 -0.00000000000E+00 -0.12500000000E+03  0.12500000000E+03  0.00000000000E+00 0. -1.
         24    1    1    2    0    0 -0.13270804420E+02  0.13444488154E+02  0.93813194882E+02  0.12500000000E+03  0.80419002446E+02 0.  0.
        -24    1    1    2    0    0  0.13270804420E+02 -0.13444488154E+02 -0.93813194882E+02  0.12500000000E+03  0.80419002446E+02 0.  0.
</event>
<event>
 4    1  0.1590495E-001  0.1250000E+03  0.7546771E-02  0.1126479E+00
        -11   -1    0    0    0    0  0.00000000000E+00  0.00000000000E+00  0.12500000000E+03  0.12500000000E+03  0.00000000000E+00 0.  1.
         11   -1    0    0    0    0 -0.00000000000E+00 -0.00000000000E+00 -0.12500000000E+03  0.12500000000E+03  0.00000000000E+00 0. -1.
         24    1    1    2    0    0  0.57552535395E+01 -0.23724854531E+02  0.92529953960E+02  0.12500000000E+03  0.80419002446E+02 0.  1.
        -24    1    1    2    0    0 -0.57552535395E+01  0.23724854531E+02 -0.92529953960E+02  0.12500000000E+03  0.80419002446E+02 0. -1.
</event>
<event>
 4    1  0.1590495E-001  0.1250000E+03  0.7546771E-02  0.1126479E+00
        -11   -1    0    0    0    0  0.00000000000E+00  0.00000000000E+00  0.12500000000E+03  0.12500000000E+03  0.00000000000E+00 0.  1.
         11   -1    0    0    0    0 -0.00000000000E+00 -0.00000000000E+00 -0.12500000000E+03  0.12500000000E+03  0.00000000000E+00 0. -1.
         24    1    1    2    0    0  0.67566436186E+02 -0.27072591882E+01  0.67714337437E+02  0.12500000000E+03  0.80419002446E+02 0.  1.
        -24    1    1    2    0    0 -0.67566436186E+02  0.27072591882E+01 -0.67714337437E+02  0.12500000000E+03  0.80419002446E+02 0. -1.
</event>
<event>
 4    1  0.1590495E-001  0.1250000E+03  0.7546771E-02  0.1126479E+00
        -11   -1    0    0    0    0  0.00000000000E+00  0.00000000000E+00  0.12500000000E+03  0.12500000000E+03  0.00000000000E+00 0.  1.
         11   -1    0    0    0    0 -0.00000000000E+00 -0.00000000000E+00 -0.12500000000E+03  0.12500000000E+03  0.00000000000E+00 0. -1.
         24    1    1    2    0    0 -0.84765631965E+02  0.42748259937E+02 -0.12048151544E+02  0.12500000000E+03  0.80419002446E+02 0. -1.
        -24    1    1    2    0    0  0.84765631965E+02 -0.42748259937E+02  0.12048151544E+02  0.12500000000E+03  0.80419002446E+02 0.  1.
</event>
<event>
 4    1  0.1590495E-001  0.1250000E+03  0.7546771E-02  0.1126479E+00
        -11   -1    0    0    0    0  0.00000000000E+00  0.00000000000E+00  0.12500000000E+03  0.12500000000E+03  0.00000000000E+00 0.  1.
         11   -1    0    0    0    0 -0.00000000000E+00 -0.00000000000E+00 -0.12500000000E+03  0.12500000000E+03  0.00000000000E+00 0. -1.
         24    1    1    2    0    0  0.24668371615E+02 -0.13547671888E+02  0.91464288517E+02  0.12500000000E+03  0.80419002446E+02 0.  1.
        -24    1    1    2    0    0 -0.24668371615E+02  0.13547671888E+02 -0.91464288517E+02  0.12500000000E+03  0.80419002446E+02 0. -1.
</event>
<event>
 4    1  0.1590495E-001  0.1250000E+03  0.7546771E-02  0.1126479E+00
        -11   -1    0    0    0    0  0.00000000000E+00  0.00000000000E+00  0.12500000000E+03  0.12500000000E+03  0.00000000000E+00 0.  1.
         11   -1    0    0    0    0 -0.00000000000E+00 -0.00000000000E+00 -0.12500000000E+03  0.12500000000E+03  0.00000000000E+00 0. -1.
         24    1    1    2    0    0  0.23933189413E+02  0.16896292813E+02  0.91101601409E+02  0.12500000000E+03  0.80419002446E+02 0.  1.
        -24    1    1    2    0    0 -0.23933189413E+02 -0.16896292813E+02 -0.91101601409E+02  0.12500000000E+03  0.80419002446E+02 0. -1.
</event>
<event>
 4    1  0.1590495E-001  0.1250000E+03  0.7546771E-02  0.1126479E+00
        -11   -1    0    0    0    0  0.00000000000E+00  0.00000000000E+00  0.12500000000E+03  0.12500000000E+03  0.00000000000E+00 0.  1.
         11   -1    0    0    0    0 -0.00000000000E+00 -0.00000000000E+00 -0.12500000000E+03  0.12500000000E+03  0.00000000000E+00 0. -1.
         24    1    1    2    0    0  0.67508678155E+02 -0.62857103676E+02  0.25482286728E+02  0.12500000000E+03  0.80419002446E+02 0. -1.
        -24    1    1    2    0    0 -0.67508678155E+02  0.62857103676E+02 -0.25482286728E+02  0.12500000000E+03  0.80419002446E+02 0.  1.
</event>
<event>
 4    1  0.1590495E-001  0.1250000E+03  0.7546771E-02  0.1126479E+00
        -11   -1    0    0    0    0  0.00000000000E+00  0.00000000000E+00  0.12500000000E+03  0.12500000000E+03  0.00000000000E+00 0.  1.
         11   -1    0    0    0    0 -0.00000000000E+00 -0.00000000000E+00 -0.12500000000E+03  0.12500000000E+03  0.00000000000E+00 0. -1.
         24    1    1    2    0    0 -0.45671157289E+02  0.11791360846E+02  0.83263997303E+02  0.12500000000E+03  0.80419002446E+02 0.  1.
        -24    1    1    2    0    0  0.45671157289E+02 -0.11791360846E+02 -0.83263997303E+02  0.12500000000E+03  0.80419002446E+02 0. -1.
</event>
<event>
 4    1  0.1590495E-001  0.1250000E+03  0.7546771E-02  0.1126479E+00
        -11   -1    0    0    0    0  0.00000000000E+00  0.00000000000E+00  0.12500000000E+03  0.12500000000E+03  0.00000000000E+00 0.  1.
         11   -1    0    0    0    0 -0.00000000000E+00 -0.00000000000E+00 -0.12500000000E+03  0.12500000000E+03  0.00000000000E+00 0. -1.
         24    1    1    2    0    0  0.42898375497E+01 -0.12891542864E+02  0.94726920472E+02  0.12500000000E+03  0.80419002446E+02 0.  1.
        -24    1    1    2    0    0 -0.42898375497E+01  0.12891542864E+02 -0.94726920472E+02  0.12500000000E+03  0.80419002446E+02 0.  0.
</event>
<event>
 4    1  0.1590495E-001  0.1250000E+03  0.7546771E-02  0.1126479E+00
        -11   -1    0    0    0    0  0.00000000000E+00  0.00000000000E+00  0.12500000000E+03  0.12500000000E+03  0.00000000000E+00 0.  1.
         11   -1    0    0    0    0 -0.00000000000E+00 -0.00000000000E+00 -0.12500000000E+03  0.12500000000E+03  0.00000000000E+00 0. -1.
         24    1    1    2    0    0 -0.83992829749E+02  0.21007796182E+01  0.45810209795E+02  0.12500000000E+03  0.80419002446E+02 0.  1.
        -24    1    1    2    0    0  0.83992829749E+02 -0.21007796182E+01 -0.45810209795E+02  0.12500000000E+03  0.80419002446E+02 0. -1.
</event>
<event>
 4    1  0.1590495E-001  0.1250000E+03  0.7546771E-02  0.1126479E+00
        -11   -1    0    0    0    0  0.00000000000E+00  0.00000000000E+00  0.12500000000E+03  0.12500000000E+03  0.00000000000E+00 0.  1.
         11   -1    0    0    0    0 -0.00000000000E+00 -0.00000000000E+00 -0.12500000000E+03  0.12500000000E+03  0.00000000000E+00 0. -1.
         24    1    1    2    0    0 -0.93467448838E+02 -0.14207319457E+01  0.20484178628E+02  0.12500000000E+03  0.80419002446E+02 0.  1.
        -24    1    1    2    0    0  0.93467448838E+02  0.14207319457E+01 -0.20484178628E+02  0.12500000000E+03  0.80419002446E+02 0.  0.
</event>
<event>
 4    1  0.1590495E-001  0.1250000E+03  0.7546771E-02  0.1126479E+00
        -11   -1    0    0    0    0  0.00000000000E+00  0.00000000000E+00  0.12500000000E+03  0.12500000000E+03  0.00000000000E+00 0.  1.
         11   -1    0    0    0    0 -0.00000000000E+00 -0.00000000000E+00 -0.12500000000E+03  0.12500000000E+03  0.00000000000E+00 0. -1.
         24    1    1    2    0    0 -0.45680339095E+02  0.54516886371E+02  0.64023431384E+02  0.12500000000E+03  0.80419002446E+02 0.  1.
        -24    1    1    2    0    0  0.45680339095E+02 -0.54516886371E+02 -0.64023431384E+02  0.12500000000E+03  0.80419002446E+02 0. -1.
</event>
<event>
 4    1  0.1590495E-001  0.1250000E+03  0.7546771E-02  0.1126479E+00
        -11   -1    0    0    0    0  0.00000000000E+00  0.00000000000E+00  0.12500000000E+03  0.12500000000E+03  0.00000000000E+00 0.  1.
         11   -1    0    0    0    0 -0.00000000000E+00 -0.00000000000E+00 -0.12500000000E+03  0.12500000000E+03  0.00000000000E+00 0. -1.
         24    1    1    2    0    0  0.27999795347E+02 -0.31962174817E+02  0.85745057508E+02  0.12500000000E+03  0.80419002446E+02 0.  1.
        -24    1    1    2    0    0 -0.27999795347E+02  0.31962174817E+02 -0.85745057508E+02  0.12500000000E+03  0.80419002446E+02 0. -1.
</event>
<event>
 4    1  0.1590495E-001  0.1250000E+03  0.7546771E-02  0.1126479E+00
        -11   -1    0    0    0    0  0.00000000000E+00  0.00000000000E+00  0.12500000000E+03  0.12500000000E+03  0.00000000000E+00 0.  1.
         11   -1    0    0    0    0 -0.00000000000E+00 -0.00000000000E+00 -0.12500000000E+03  0.12500000000E+03  0.00000000000E+00 0. -1.
         24    1    1    2    0    0  0.22104612907E+02  0.85983286632E+02  0.35721765828E+02  0.12500000000E+03  0.80419002446E+02 0.  1.
        -24    1    1    2    0    0 -0.22104612907E+02 -0.85983286632E+02 -0.35721765828E+02  0.12500000000E+03  0.80419002446E+02 0. -1.
</event>
<event>
 4    1  0.1590495E-001  0.1250000E+03  0.7546771E-02  0.1126479E+00
        -11   -1    0    0    0    0  0.00000000000E+00  0.00000000000E+00  0.12500000000E+03  0.12500000000E+03  0.00000000000E+00 0.  1.
         11   -1    0    0    0    0 -0.00000000000E+00 -0.00000000000E+00 -0.12500000000E+03  0.12500000000E+03  0.00000000000E+00 0. -1.
         24    1    1    2    0    0  0.30369735435E+02  0.25956302440E+02  0.86958228931E+02  0.12500000000E+03  0.80419002446E+02 0.  1.
        -24    1    1    2    0    0 -0.30369735435E+02 -0.25956302440E+02 -0.86958228931E+02  0.12500000000E+03  0.80419002446E+02 0. -1.
</event>
<event>
 4    1  0.1590495E-001  0.1250000E+03  0.7546771E-02  0.1126479E+00
        -11   -1    0    0    0    0  0.00000000000E+00  0.00000000000E+00  0.12500000000E+03  0.12500000000E+03  0.00000000000E+00 0.  1.
         11   -1    0    0    0    0 -0.00000000000E+00 -0.00000000000E+00 -0.12500000000E+03  0.12500000000E+03  0.00000000000E+00 0. -1.
         24    1    1    2    0    0  0.33465175821E+02  0.36905614942E+02  0.81705823774E+02  0.12500000000E+03  0.80419002446E+02 0.  1.
        -24    1    1    2    0    0 -0.33465175821E+02 -0.36905614942E+02 -0.81705823774E+02  0.12500000000E+03  0.80419002446E+02 0. -1.
</event>
<event>
 4    1  0.1590495E-001  0.1250000E+03  0.7546771E-02  0.1126479E+00
        -11   -1    0    0    0    0  0.00000000000E+00  0.00000000000E+00  0.12500000000E+03  0.12500000000E+03  0.00000000000E+00 0.  1.
         11   -1    0    0    0    0 -0.00000000000E+00 -0.00000000000E+00 -0.12500000000E+03  0.12500000000E+03  0.00000000000E+00 0. -1.
         24    1    1    2    0    0  0.12777889634E+02 -0.24965634269E+02  0.91494407958E+02  0.12500000000E+03  0.80419002446E+02 0.  1.
        -24    1    1    2    0    0 -0.12777889634E+02  0.24965634269E+02 -0.91494407958E+02  0.12500000000E+03  0.80419002446E+02 0. -1.
</event>
<event>
 4    1  0.1590495E-001  0.1250000E+03  0.7546771E-02  0.1126479E+00
        -11   -1    0    0    0    0  0.00000000000E+00  0.00000000000E+00  0.12500000000E+03  0.12500000000E+03  0.00000000000E+00 0.  1.
         11   -1    0    0    0    0 -0.00000000000E+00 -0.00000000000E+00 -0.12500000000E+03  0.12500000000E+03  0.00000000000E+00 0. -1.
         24    1    1    2    0    0 -0.66306185516E+02  0.11826677437E+02  0.67980905471E+02  0.12500000000E+03  0.80419002446E+02 0.  1.
        -24    1    1    2    0    0  0.66306185516E+02 -0.11826677437E+02 -0.67980905471E+02  0.12500000000E+03  0.80419002446E+02 0. -1.
</event>
<event>
 4    1  0.1590495E-001  0.1250000E+03  0.7546771E-02  0.1126479E+00
        -11   -1    0    0    0    0  0.00000000000E+00  0.00000000000E+00  0.12500000000E+03  0.12500000000E+03  0.00000000000E+00 0.  1.
         11   -1    0    0    0    0 -0.00000000000E+00 -0.00000000000E+00 -0.12500000000E+03  0.12500000000E+03  0.00000000000E+00 0. -1.
         24    1    1    2    0    0  0.57755796291E+01 -0.22369777178E+02  0.92865600706E+02  0.12500000000E+03  0.80419002446E+02 0.  1.
        -24    1    1    2    0    0 -0.57755796291E+01  0.22369777178E+02 -0.92865600706E+02  0.12500000000E+03  0.80419002446E+02 0.  0.
</event>
<event>
 4    1  0.1590495E-001  0.1250000E+03  0.7546771E-02  0.1126479E+00
        -11   -1    0    0    0    0  0.00000000000E+00  0.00000000000E+00  0.12500000000E+03  0.12500000000E+03  0.00000000000E+00 0.  1.
         11   -1    0    0    0    0 -0.00000000000E+00 -0.00000000000E+00 -0.12500000000E+03  0.12500000000E+03  0.00000000000E+00 0. -1.
         24    1    1    2    0    0 -0.37238463699E+02  0.85351224490E+02  0.22051062222E+02  0.12500000000E+03  0.80419002446E+02 0.  1.
        -24    1    1    2    0    0  0.37238463699E+02 -0.85351224490E+02 -0.22051062222E+02  0.12500000000E+03  0.80419002446E+02 0. -1.
</event>
<event>
 4    1  0.1590495E-001  0.1250000E+03  0.7546771E-02  0.1126479E+00
        -11   -1    0    0    0    0  0.00000000000E+00  0.00000000000E+00  0.12500000000E+03  0.12500000000E+03  0.00000000000E+00 0.  1.
         11   -1    0    0    0    0 -0.00000000000E+00 -0.00000000000E+00 -0.12500000000E+03  0.12500000000E+03  0.00000000000E+00 0. -1.
         24    1    1    2    0    0 -0.35519338890E+02  0.27110016816E+02  0.84623918597E+02  0.12500000000E+03  0.80419002446E+02 0.  1.
        -24    1    1    2    0    0  0.35519338890E+02 -0.27110016816E+02 -0.84623918597E+02  0.12500000000E+03  0.80419002446E+02 0. -1.
</event>
<event>
 4    1  0.1590495E-001  0.1250000E+03  0.7546771E-02  0.1126479E+00
        -11   -1    0    0    0    0  0.00000000000E+00  0.00000000000E+00  0.12500000000E+03  0.12500000000E+03  0.00000000000E+00 0.  1.
         11   -1    0    0    0    0 -0.00000000000E+00 -0.00000000000E+00 -0.12500000000E+03  0.12500000000E+03  0.00000000000E+00 0. -1.
         24    1    1    2    0    0  0.88746876149E+01 -0.48226092704E+02  0.82178269316E+02  0.12500000000E+03  0.80419002446E+02 0.  1.
        -24    1    1    2    0    0 -0.88746876149E+01  0.48226092704E+02 -0.82178269316E+02  0.12500000000E+03  0.80419002446E+02 0. -1.
</event>
<event>
 4    1  0.1590495E-001  0.1250000E+03  0.7546771E-02  0.1126479E+00
        -11   -1    0    0    0    0  0.00000000000E+00  0.00000000000E+00  0.12500000000E+03  0.12500000000E+03  0.00000000000E+00 0.  1.
         11   -1    0    0    0    0 -0.00000000000E+00 -0.00000000000E+00 -0.12500000000E+03  0.12500000000E+03  0.00000000000E+00 0. -1.
         24    1    1    2    0    0 -0.13351781900E+02 -0.27451646648E+01  0.94720525952E+02  0.12500000000E+03  0.80419002446E+02 0.  0.
        -24    1    1    2    0    0  0.13351781900E+02  0.27451646648E+01 -0.94720525952E+02  0.12500000000E+03  0.80419002446E+02 0. -1.
</event>
<event>
 4    1  0.1590495E-001  0.1250000E+03  0.7546771E-02  0.1126479E+00
        -11   -1    0    0    0    0  0.00000000000E+00  0.00000000000E+00  0.12500000000E+03  0.12500000000E+03  0.00000000000E+00 0.  1.
         11   -1    0    0    0    0 -0.00000000000E+00 -0.00000000000E+00 -0.12500000000E+03  0.12500000000E+03  0.00000000000E+00 0. -1.
         24    1    1    2    0    0  0.23026333603E+02  0.18321259058E+02  0.91059889485E+02  0.12500000000E+03  0.80419002446E+02 0.  1.
        -24    1    1    2    0    0 -0.23026333603E+02 -0.18321259058E+02 -0.91059889485E+02  0.12500000000E+03  0.80419002446E+02 0. -1.
</event>
<event>
 4    1  0.1590495E-001  0.1250000E+03  0.7546771E-02  0.1126479E+00
        -11   -1    0    0    0    0  0.00000000000E+00  0.00000000000E+00  0.12500000000E+03  0.12500000000E+03  0.00000000000E+00 0.  1.
         11   -1    0    0    0    0 -0.00000000000E+00 -0.00000000000E+00 -0.12500000000E+03  0.12500000000E+03  0.00000000000E+00 0. -1.
         24    1    1    2    0    0 -0.16483509095E+02  0.16862220307E+02  0.92745584800E+02  0.12500000000E+03  0.80419002446E+02 0.  1.
        -24    1    1    2    0    0  0.16483509095E+02 -0.16862220307E+02 -0.92745584800E+02  0.12500000000E+03  0.80419002446E+02 0. -1.
</event>
<event>
 4    1  0.1590495E-001  0.1250000E+03  0.7546771E-02  0.1126479E+00
        -11   -1    0    0    0    0  0.00000000000E+00  0.00000000000E+00  0.12500000000E+03  0.12500000000E+03  0.00000000000E+00 0.  1.
         11   -1    0    0    0    0 -0.00000000000E+00 -0.00000000000E+00 -0.12500000000E+03  0.12500000000E+03  0.00000000000E+00 0. -1.
         24    1    1    2    0    0 -0.25781081839E+01 -0.15134937107E+02  0.94456715392E+02  0.12500000000E+03  0.80419002446E+02 0.  0.
        -24    1    1    2    0    0  0.25781081839E+01  0.15134937107E+02 -0.94456715392E+02  0.12500000000E+03  0.80419002446E+02 0. -1.
</event>
<event>
 4    1  0.1590495E-001  0.1250000E+03  0.7546771E-02  0.1126479E+00
        -11   -1    0    0    0    0  0.00000000000E+00  0.00000000000E+00  0.12500000000E+03  0.12500000000E+03  0.00000000000E+00 0.  1.
         11   -1    0    0    0    0 -0.00000000000E+00 -0.00000000000E+00 -0.12500000000E+03  0.12500000000E+03  0.00000000000E+00 0. -1.
         24    1    1    2    0    0  0.32865851546E+02 -0.37295770727E+02  0.81771910419E+02  0.12500000000E+03  0.80419002446E+02 0.  1.
        -24    1    1    2    0    0 -0.32865851546E+02  0.37295770727E+02 -0.81771910419E+02  0.12500000000E+03  0.80419002446E+02 0. -1.
</event>
<event>
 4    1  0.1590495E-001  0.1250000E+03  0.7546771E-02  0.1126479E+00
        -11   -1    0    0    0    0  0.00000000000E+00  0.00000000000E+00  0.12500000000E+03  0.12500000000E+03  0.00000000000E+00 0.  1.
         11   -1    0    0    0    0 -0.00000000000E+00 -0.00000000000E+00 -0.12500000000E+03  0.12500000000E+03  0.00000000000E+00 0. -1.
         24    1    1    2    0    0 -0.10043458882E+02  0.22380232136E+02  0.92498855068E+02  0.12500000000E+03  0.80419002446E+02 0.  1.
        -24    1    1    2    0    0  0.10043458882E+02 -0.22380232136E+02 -0.92498855068E+02  0.12500000000E+03  0.80419002446E+02 0. -1.
</event>
<event>
 4    1  0.1590495E-001  0.1250000E+03  0.7546771E-02  0.1126479E+00
        -11   -1    0    0    0    0  0.00000000000E+00  0.00000000000E+00  0.12500000000E+03  0.12500000000E+03  0.00000000000E+00 0.  1.
         11   -1    0    0    0    0 -0.00000000000E+00 -0.00000000000E+00 -0.12500000000E+03  0.12500000000E+03  0.00000000000E+00 0. -1.
         24    1    1    2    0    0 -0.65753537828E+02 -0.60818166414E+02  0.33695800077E+02  0.12500000000E+03  0.80419002446E+02 0.  1.
        -24    1    1    2    0    0  0.65753537828E+02  0.60818166414E+02 -0.33695800077E+02  0.12500000000E+03  0.80419002446E+02 0.  0.
</event>
<event>
 4    1  0.1590495E-001  0.1250000E+03  0.7546771E-02  0.1126479E+00
        -11   -1    0    0    0    0  0.00000000000E+00  0.00000000000E+00  0.12500000000E+03  0.12500000000E+03  0.00000000000E+00 0.  1.
         11   -1    0    0    0    0 -0.00000000000E+00 -0.00000000000E+00 -0.12500000000E+03  0.12500000000E+03  0.00000000000E+00 0. -1.
         24    1    1    2    0    0  0.59613458642E+02  0.46185585795E+02  0.58914440157E+02  0.12500000000E+03  0.80419002446E+02 0.  1.
        -24    1    1    2    0    0 -0.59613458642E+02 -0.46185585795E+02 -0.58914440157E+02  0.12500000000E+03  0.80419002446E+02 0. -1.
</event>
<event>
 4    1  0.1590495E-001  0.1250000E+03  0.7546771E-02  0.1126479E+00
        -11   -1    0    0    0    0  0.00000000000E+00  0.00000000000E+00  0.12500000000E+03  0.12500000000E+03  0.00000000000E+00 0.  1.
         11   -1    0    0    0    0 -0.00000000000E+00 -0.00000000000E+00 -0.12500000000E+03  0.12500000000E+03  0.00000000000E+00 0. -1.
         24    1    1    2    0    0  0.39907658998E+01 -0.56552610401E+01  0.95445669654E+02  0.12500000000E+03  0.80419002446E+02 0.  0.
        -24    1    1    2    0    0 -0.39907658998E+01  0.56552610401E+01 -0.95445669654E+02  0.12500000000E+03  0.80419002446E+02 0. -1.
</event>
<event>
 4    1  0.1590495E-001  0.1250000E+03  0.7546771E-02  0.1126479E+00
        -11   -1    0    0    0    0  0.00000000000E+00  0.00000000000E+00  0.12500000000E+03  0.12500000000E+03  0.00000000000E+00 0.  1.
         11   -1    0    0    0    0 -0.00000000000E+00 -0.00000000000E+00 -0.12500000000E+03  0.12500000000E+03  0.00000000000E+00 0. -1.
         24    1    1    2    0    0  0.74342431334E+01  0.30315910778E+02  0.90462487410E+02  0.12500000000E+03  0.80419002446E+02 0.  1.
        -24    1    1    2    0    0 -0.74342431334E+01 -0.30315910778E+02 -0.90462487410E+02  0.12500000000E+03  0.80419002446E+02 0. -1.
</event>
<event>
 4    1  0.1590495E-001  0.1250000E+03  0.7546771E-02  0.1126479E+00
        -11   -1    0    0    0    0  0.00000000000E+00  0.00000000000E+00  0.12500000000E+03  0.12500000000E+03  0.00000000000E+00 0.  1.
         11   -1    0    0    0    0 -0.00000000000E+00 -0.00000000000E+00 -0.12500000000E+03  0.12500000000E+03  0.00000000000E+00 0. -1.
         24    1    1    2    0    0 -0.36273574533E+02 -0.12672249728E+02  0.87643744347E+02  0.12500000000E+03  0.80419002446E+02 0.  1.
        -24    1    1    2    0    0  0.36273574533E+02  0.12672249728E+02 -0.87643744347E+02  0.12500000000E+03  0.80419002446E+02 0. -1.
</event>
<event>
 4    1  0.1590495E-001  0.1250000E+03  0.7546771E-02  0.1126479E+00
        -11   -1    0    0    0    0  0.00000000000E+00  0.00000000000E+00  0.12500000000E+03  0.12500000000E+03  0.00000000000E+00 0.  1.
         11   -1    0    0    0    0 -0.00000000000E+00 -0.00000000000E+00 -0.12500000000E+03  0.12500000000E+03  0.00000000000E+00 0. -1.
         24    1    1    2    0    0 -0.30038324416E+02 -0.26293859356E+02  0.86971926919E+02  0.12500000000E+03  0.80419002446E+02 0.  1.
        -24    1    1    2    0    0  0.30038324416E+02  0.26293859356E+02 -0.86971926919E+02  0.12500000000E+03  0.80419002446E+02 0. -1.
</event>
<event>
 4    1  0.1590495E-001  0.1250000E+03  0.7546771E-02  0.1126479E+00
        -11   -1    0    0    0    0  0.00000000000E+00  0.00000000000E+00  0.12500000000E+03  0.12500000000E+03  0.00000000000E+00 0.  1.
         11   -1    0    0    0    0 -0.00000000000E+00 -0.00000000000E+00 -0.12500000000E+03  0.12500000000E+03  0.00000000000E+00 0. -1.
         24    1    1    2    0    0 -0.35755565802E+01  0.68459047293E+02  0.66770938922E+02  0.12500000000E+03  0.80419002446E+02 0. -1.
        -24    1    1    2    0    0  0.35755565802E+01 -0.68459047293E+02 -0.66770938922E+02  0.12500000000E+03  0.80419002446E+02 0.  0.
</event>
<event>
 4    1  0.1590495E-001  0.1250000E+03  0.7546771E-02  0.1126479E+00
        -11   -1    0    0    0    0  0.00000000000E+00  0.00000000000E+00  0.12500000000E+03  0.12500000000E+03  0.00000000000E+00 0.  1.
         11   -1    0    0    0    0 -0.00000000000E+00 -0.00000000000E+00 -0.12500000000E+03  0.12500000000E+03  0.00000000000E+00 0. -1.
         24    1    1    2    0    0  0.20457595260E+02 -0.44501920952E+02  0.82212224598E+02  0.12500000000E+03  0.80419002446E+02 0.  1.
        -24    1    1    2    0    0 -0.20457595260E+02  0.44501920952E+02 -0.82212224598E+02  0.12500000000E+03  0.80419002446E+02 0. -1.
</event>
<event>
 4    1  0.1590495E-001  0.1250000E+03  0.7546771E-02  0.1126479E+00
        -11   -1    0    0    0    0  0.00000000000E+00  0.00000000000E+00  0.12500000000E+03  0.12500000000E+03  0.00000000000E+00 0.  1.
         11   -1    0    0    0    0 -0.00000000000E+00 -0.00000000000E+00 -0.12500000000E+03  0.12500000000E+03  0.00000000000E+00 0. -1.
         24    1    1    2    0    0 -0.64135165725E+01 -0.30669927873E+01  0.95431883593E+02  0.12500000000E+03  0.80419002446E+02 0.  0.
        -24    1    1    2    0    0  0.64135165725E+01  0.30669927873E+01 -0.95431883593E+02  0.12500000000E+03  0.80419002446E+02 0. -1.
</event>
<event>
 4    1  0.1590495E-001  0.1250000E+03  0.7546771E-02  0.1126479E+00
        -11   -1    0    0    0    0  0.00000000000E+00  0.00000000000E+00  0.12500000000E+03  0.12500000000E+03  0.00000000000E+00 0.  1.
         11   -1    0    0    0    0 -0.00000000000E+00 -0.00000000000E+00 -0.12500000000E+03  0.12500000000E+03  0.00000000000E+00 0. -1.
         24    1    1    2    0    0 -0.24679705846E+02  0.13618531488E+02  0.91450706750E+02  0.12500000000E+03  0.80419002446E+02 0.  1.
        -24    1    1    2    0    0  0.24679705846E+02 -0.13618531488E+02 -0.91450706750E+02  0.12500000000E+03  0.80419002446E+02 0. -1.
</event>
<event>
 4    1  0.1590495E-001  0.1250000E+03  0.7546771E-02  0.1126479E+00
        -11   -1    0    0    0    0  0.00000000000E+00  0.00000000000E+00  0.12500000000E+03  0.12500000000E+03  0.00000000000E+00 0.  1.
         11   -1    0    0    0    0 -0.00000000000E+00 -0.00000000000E+00 -0.12500000000E+03  0.12500000000E+03  0.00000000000E+00 0. -1.
         24    1    1    2    0    0  0.22652426082E+02  0.65907754190E+01  0.92742726494E+02  0.12500000000E+03  0.80419002446E+02 0.  1.
        -24    1    1    2    0    0 -0.22652426082E+02 -0.65907754190E+01 -0.92742726494E+02  0.12500000000E+03  0.80419002446E+02 0. -1.
</event>
<event>
 4    1  0.1590495E-001  0.1250000E+03  0.7546771E-02  0.1126479E+00
        -11   -1    0    0    0    0  0.00000000000E+00  0.00000000000E+00  0.12500000000E+03  0.12500000000E+03  0.00000000000E+00 0.  1.
         11   -1    0    0    0    0 -0.00000000000E+00 -0.00000000000E+00 -0.12500000000E+03  0.12500000000E+03  0.00000000000E+00 0. -1.
         24    1    1    2    0    0  0.12795041360E+02  0.26399892343E+02  0.91088509959E+02  0.12500000000E+03  0.80419002446E+02 0.  1.
        -24    1    1    2    0    0 -0.12795041360E+02 -0.26399892343E+02 -0.91088509959E+02  0.12500000000E+03  0.80419002446E+02 0. -1.
</event>
<event>
 4    1  0.1590495E-001  0.1250000E+03  0.7546771E-02  0.1126479E+00
        -11   -1    0    0    0    0  0.00000000000E+00  0.00000000000E+00  0.12500000000E+03  0.12500000000E+03  0.00000000000E+00 0.  1.
         11   -1    0    0    0    0 -0.00000000000E+00 -0.00000000000E+00 -0.12500000000E+03  0.12500000000E+03  0.00000000000E+00 0. -1.
         24    1    1    2    0    0 -0.57589235237E+02  0.33792548513E+02  0.68551642543E+02  0.12500000000E+03  0.80419002446E+02 0.  1.
        -24    1    1    2    0    0  0.57589235237E+02 -0.33792548513E+02 -0.68551642543E+02  0.12500000000E+03  0.80419002446E+02 0. -1.
</event>
<event>
 4    1  0.1590495E-001  0.1250000E+03  0.7546771E-02  0.1126479E+00
        -11   -1    0    0    0    0  0.00000000000E+00  0.00000000000E+00  0.12500000000E+03  0.12500000000E+03  0.00000000000E+00 0.  1.
         11   -1    0    0    0    0 -0.00000000000E+00 -0.00000000000E+00 -0.12500000000E+03  0.12500000000E+03  0.00000000000E+00 0. -1.
         24    1    1    2    0    0 -0.22708523806E+02 -0.37897595642E+02  0.84887450408E+02  0.12500000000E+03  0.80419002446E+02 0.  1.
        -24    1    1    2    0    0  0.22708523806E+02  0.37897595642E+02 -0.84887450408E+02  0.12500000000E+03  0.80419002446E+02 0. -1.
</event>
<event>
 4    1  0.1590495E-001  0.1250000E+03  0.7546771E-02  0.1126479E+00
        -11   -1    0    0    0    0  0.00000000000E+00  0.00000000000E+00  0.12500000000E+03  0.12500000000E+03  0.00000000000E+00 0.  1.
         11   -1    0    0    0    0 -0.00000000000E+00 -0.00000000000E+00 -0.12500000000E+03  0.12500000000E+03  0.00000000000E+00 0. -1.
         24    1    1    2    0    0 -0.30497884071E+02 -0.56736352441E+02  0.70771812358E+02  0.12500000000E+03  0.80419002446E+02 0.  1.
        -24    1    1    2    0    0  0.30497884071E+02  0.56736352441E+02 -0.70771812358E+02  0.12500000000E+03  0.80419002446E+02 0. -1.
</event>
<event>
 4    1  0.1590495E-001  0.1250000E+03  0.7546771E-02  0.1126479E+00
        -11   -1    0    0    0    0  0.00000000000E+00  0.00000000000E+00  0.12500000000E+03  0.12500000000E+03  0.00000000000E+00 0.  1.
         11   -1    0    0    0    0 -0.00000000000E+00 -0.00000000000E+00 -0.12500000000E+03  0.12500000000E+03  0.00000000000E+00 0. -1.
         24    1    1    2    0    0  0.53540559326E+02 -0.12622375213E+02  0.78306246217E+02  0.12500000000E+03  0.80419002446E+02 0.  1.
        -24    1    1    2    0    0 -0.53540559326E+02  0.12622375213E+02 -0.78306246217E+02  0.12500000000E+03  0.80419002446E+02 0. -1.
</event>
<event>
 4    1  0.1590495E-001  0.1250000E+03  0.7546771E-02  0.1126479E+00
        -11   -1    0    0    0    0  0.00000000000E+00  0.00000000000E+00  0.12500000000E+03  0.12500000000E+03  0.00000000000E+00 0.  1.
         11   -1    0    0    0    0 -0.00000000000E+00 -0.00000000000E+00 -0.12500000000E+03  0.12500000000E+03  0.00000000000E+00 0. -1.
         24    1    1    2    0    0 -0.46691423349E+02  0.23598336184E+02  0.80129979163E+02  0.12500000000E+03  0.80419002446E+02 0.  1.
        -24    1    1    2    0    0  0.46691423349E+02 -0.23598336184E+02 -0.80129979163E+02  0.12500000000E+03  0.80419002446E+02 0. -1.
</event>
<event>
 4    1  0.1590495E-001  0.1250000E+03  0.7546771E-02  0.1126479E+00
        -11   -1    0    0    0    0  0.00000000000E+00  0.00000000000E+00  0.12500000000E+03  0.12500000000E+03  0.00000000000E+00 0.  1.
         11   -1    0    0    0    0 -0.00000000000E+00 -0.00000000000E+00 -0.12500000000E+03  0.12500000000E+03  0.00000000000E+00 0. -1.
         24    1    1    2    0    0  0.41026360025E+02 -0.19555477020E+02  0.84215231088E+02  0.12500000000E+03  0.80419002446E+02 0.  0.
        -24    1    1    2    0    0 -0.41026360025E+02  0.19555477020E+02 -0.84215231088E+02  0.12500000000E+03  0.80419002446E+02 0.  1.
</event>
<event>
 4    1  0.1590495E-001  0.1250000E+03  0.7546771E-02  0.1126479E+00
        -11   -1    0    0    0    0  0.00000000000E+00  0.00000000000E+00  0.12500000000E+03  0.12500000000E+03  0.00000000000E+00 0.  1.
         11   -1    0    0    0    0 -0.00000000000E+00 -0.00000000000E+00 -0.12500000000E+03  0.12500000000E+03  0.00000000000E+00 0. -1.
         24    1    1    2    0    0  0.46504664646E+02 -0.98379866775E+01  0.83056090866E+02  0.12500000000E+03  0.80419002446E+02 0.  1.
        -24    1    1    2    0    0 -0.46504664646E+02  0.98379866775E+01 -0.83056090866E+02  0.12500000000E+03  0.80419002446E+02 0. -1.
</event>
<event>
 4    1  0.1590495E-001  0.1250000E+03  0.7546771E-02  0.1126479E+00
        -11   -1    0    0    0    0  0.00000000000E+00  0.00000000000E+00  0.12500000000E+03  0.12500000000E+03  0.00000000000E+00 0.  1.
         11   -1    0    0    0    0 -0.00000000000E+00 -0.00000000000E+00 -0.12500000000E+03  0.12500000000E+03  0.00000000000E+00 0. -1.
         24    1    1    2    0    0 -0.89740543960E+02  0.32687713683E+02 -0.59943464671E+01  0.12500000000E+03  0.80419002446E+02 0. -1.
        -24    1    1    2    0    0  0.89740543960E+02 -0.32687713683E+02  0.59943464671E+01  0.12500000000E+03  0.80419002446E+02 0.  0.
</event>
<event>
 4    1  0.1590495E-001  0.1250000E+03  0.7546771E-02  0.1126479E+00
        -11   -1    0    0    0    0  0.00000000000E+00  0.00000000000E+00  0.12500000000E+03  0.12500000000E+03  0.00000000000E+00 0.  1.
         11   -1    0    0    0    0 -0.00000000000E+00 -0.00000000000E+00 -0.12500000000E+03  0.12500000000E+03  0.00000000000E+00 0. -1.
         24    1    1    2    0    0  0.56989079611E+02  0.54362427390E+02  0.54357661273E+02  0.12500000000E+03  0.80419002446E+02 0.  1.
        -24    1    1    2    0    0 -0.56989079611E+02 -0.54362427390E+02 -0.54357661273E+02  0.12500000000E+03  0.80419002446E+02 0. -1.
</event>
<event>
 4    1  0.1590495E-001  0.1250000E+03  0.7546771E-02  0.1126479E+00
        -11   -1    0    0    0    0  0.00000000000E+00  0.00000000000E+00  0.12500000000E+03  0.12500000000E+03  0.00000000000E+00 0.  1.
         11   -1    0    0    0    0 -0.00000000000E+00 -0.00000000000E+00 -0.12500000000E+03  0.12500000000E+03  0.00000000000E+00 0. -1.
         24    1    1    2    0    0 -0.76656682596E+02  0.54611776088E+02 -0.17294246775E+02  0.12500000000E+03  0.80419002446E+02 0.  0.
        -24    1    1    2    0    0  0.76656682596E+02 -0.54611776088E+02  0.17294246775E+02  0.12500000000E+03  0.80419002446E+02 0. -1.
</event>
<event>
 4    1  0.1590495E-001  0.1250000E+03  0.7546771E-02  0.1126479E+00
        -11   -1    0    0    0    0  0.00000000000E+00  0.00000000000E+00  0.12500000000E+03  0.12500000000E+03  0.00000000000E+00 0.  1.
         11   -1    0    0    0    0 -0.00000000000E+00 -0.00000000000E+00 -0.12500000000E+03  0.12500000000E+03  0.00000000000E+00 0. -1.
         24    1    1    2    0    0  0.10875674512E+01  0.75901386461E+02  0.58271612094E+02  0.12500000000E+03  0.80419002446E+02 0.  1.
        -24    1    1    2    0    0 -0.10875674512E+01 -0.75901386461E+02 -0.58271612094E+02  0.12500000000E+03  0.80419002446E+02 0. -1.
</event>
<event>
 4    1  0.1590495E-001  0.1250000E+03  0.7546771E-02  0.1126479E+00
        -11   -1    0    0    0    0  0.00000000000E+00  0.00000000000E+00  0.12500000000E+03  0.12500000000E+03  0.00000000000E+00 0.  1.
         11   -1    0    0    0    0 -0.00000000000E+00 -0.00000000000E+00 -0.12500000000E+03  0.12500000000E+03  0.00000000000E+00 0. -1.
         24    1    1    2    0    0  0.79042895133E+02 -0.39632784661E+02  0.36595725908E+02  0.12500000000E+03  0.80419002446E+02 0.  1.
        -24    1    1    2    0    0 -0.79042895133E+02  0.39632784661E+02 -0.36595725908E+02  0.12500000000E+03  0.80419002446E+02 0. -1.
</event>
<event>
 4    1  0.1590495E-001  0.1250000E+03  0.7546771E-02  0.1126479E+00
        -11   -1    0    0    0    0  0.00000000000E+00  0.00000000000E+00  0.12500000000E+03  0.12500000000E+03  0.00000000000E+00 0.  1.
         11   -1    0    0    0    0 -0.00000000000E+00 -0.00000000000E+00 -0.12500000000E+03  0.12500000000E+03  0.00000000000E+00 0. -1.
         24    1    1    2    0    0 -0.98660234258E+01 -0.68162680635E+02  0.66440158007E+02  0.12500000000E+03  0.80419002446E+02 0.  1.
        -24    1    1    2    0    0  0.98660234258E+01  0.68162680635E+02 -0.66440158007E+02  0.12500000000E+03  0.80419002446E+02 0. -1.
</event>
<event>
 4    1  0.1590495E-001  0.1250000E+03  0.7546771E-02  0.1126479E+00
        -11   -1    0    0    0    0  0.00000000000E+00  0.00000000000E+00  0.12500000000E+03  0.12500000000E+03  0.00000000000E+00 0.  1.
         11   -1    0    0    0    0 -0.00000000000E+00 -0.00000000000E+00 -0.12500000000E+03  0.12500000000E+03  0.00000000000E+00 0. -1.
         24    1    1    2    0    0  0.36250854285E+02 -0.25091132870E+02  0.84935826720E+02  0.12500000000E+03  0.80419002446E+02 0.  1.
        -24    1    1    2    0    0 -0.36250854285E+02  0.25091132870E+02 -0.84935826720E+02  0.12500000000E+03  0.80419002446E+02 0. -1.
</event>
<event>
 4    1  0.1590495E-001  0.1250000E+03  0.7546771E-02  0.1126479E+00
        -11   -1    0    0    0    0  0.00000000000E+00  0.00000000000E+00  0.12500000000E+03  0.12500000000E+03  0.00000000000E+00 0.  1.
         11   -1    0    0    0    0 -0.00000000000E+00 -0.00000000000E+00 -0.12500000000E+03  0.12500000000E+03  0.00000000000E+00 0. -1.
         24    1    1    2    0    0  0.40638049579E+02 -0.90621486147E+01  0.86163858053E+02  0.12500000000E+03  0.80419002446E+02 0.  1.
        -24    1    1    2    0    0 -0.40638049579E+02  0.90621486147E+01 -0.86163858053E+02  0.12500000000E+03  0.80419002446E+02 0. -1.
</event>
<event>
 4    1  0.1590495E-001  0.1250000E+03  0.7546771E-02  0.1126479E+00
        -11   -1    0    0    0    0  0.00000000000E+00  0.00000000000E+00  0.12500000000E+03  0.12500000000E+03  0.00000000000E+00 0.  1.
         11   -1    0    0    0    0 -0.00000000000E+00 -0.00000000000E+00 -0.12500000000E+03  0.12500000000E+03  0.00000000000E+00 0. -1.
         24    1    1    2    0    0  0.40848515695E+02  0.14290632206E+02  0.85351980893E+02  0.12500000000E+03  0.80419002446E+02 0.  1.
        -24    1    1    2    0    0 -0.40848515695E+02 -0.14290632206E+02 -0.85351980893E+02  0.12500000000E+03  0.80419002446E+02 0. -1.
</event>
<event>
 4    1  0.1590495E-001  0.1250000E+03  0.7546771E-02  0.1126479E+00
        -11   -1    0    0    0    0  0.00000000000E+00  0.00000000000E+00  0.12500000000E+03  0.12500000000E+03  0.00000000000E+00 0.  1.
         11   -1    0    0    0    0 -0.00000000000E+00 -0.00000000000E+00 -0.12500000000E+03  0.12500000000E+03  0.00000000000E+00 0. -1.
         24    1    1    2    0    0  0.58601830304E+02 -0.31831595800E+02  0.68632055481E+02  0.12500000000E+03  0.80419002446E+02 0.  1.
        -24    1    1    2    0    0 -0.58601830304E+02  0.31831595800E+02 -0.68632055481E+02  0.12500000000E+03  0.80419002446E+02 0. -1.
</event>
<event>
 4    1  0.1590495E-001  0.1250000E+03  0.7546771E-02  0.1126479E+00
        -11   -1    0    0    0    0  0.00000000000E+00  0.00000000000E+00  0.12500000000E+03  0.12500000000E+03  0.00000000000E+00 0.  1.
         11   -1    0    0    0    0 -0.00000000000E+00 -0.00000000000E+00 -0.12500000000E+03  0.12500000000E+03  0.00000000000E+00 0. -1.
         24    1    1    2    0    0  0.38400391708E+02  0.19161787100E+01  0.87632883220E+02  0.12500000000E+03  0.80419002446E+02 0.  1.
        -24    1    1    2    0    0 -0.38400391708E+02 -0.19161787100E+01 -0.87632883220E+02  0.12500000000E+03  0.80419002446E+02 0. -1.
</event>
<event>
 4    1  0.1590495E-001  0.1250000E+03  0.7546771E-02  0.1126479E+00
        -11   -1    0    0    0    0  0.00000000000E+00  0.00000000000E+00  0.12500000000E+03  0.12500000000E+03  0.00000000000E+00 0.  1.
         11   -1    0    0    0    0 -0.00000000000E+00 -0.00000000000E+00 -0.12500000000E+03  0.12500000000E+03  0.00000000000E+00 0. -1.
         24    1    1    2    0    0  0.12556654323E+02 -0.14518713643E+01  0.94857822805E+02  0.12500000000E+03  0.80419002446E+02 0.  1.
        -24    1    1    2    0    0 -0.12556654323E+02  0.14518713643E+01 -0.94857822805E+02  0.12500000000E+03  0.80419002446E+02 0.  0.
</event>
<event>
 4    1  0.1590495E-001  0.1250000E+03  0.7546771E-02  0.1126479E+00
        -11   -1    0    0    0    0  0.00000000000E+00  0.00000000000E+00  0.12500000000E+03  0.12500000000E+03  0.00000000000E+00 0.  1.
         11   -1    0    0    0    0 -0.00000000000E+00 -0.00000000000E+00 -0.12500000000E+03  0.12500000000E+03  0.00000000000E+00 0. -1.
         24    1    1    2    0    0 -0.21212640999E+01  0.12523158519E+02  0.94849643041E+02  0.12500000000E+03  0.80419002446E+02 0.  1.
        -24    1    1    2    0    0  0.21212640999E+01 -0.12523158519E+02 -0.94849643041E+02  0.12500000000E+03  0.80419002446E+02 0. -1.
</event>
<event>
 4    1  0.1590495E-001  0.1250000E+03  0.7546771E-02  0.1126479E+00
        -11   -1    0    0    0    0  0.00000000000E+00  0.00000000000E+00  0.12500000000E+03  0.12500000000E+03  0.00000000000E+00 0.  1.
         11   -1    0    0    0    0 -0.00000000000E+00 -0.00000000000E+00 -0.12500000000E+03  0.12500000000E+03  0.00000000000E+00 0. -1.
         24    1    1    2    0    0  0.67817848701E+02  0.73736381787E+01  0.67112986100E+02  0.12500000000E+03  0.80419002446E+02 0.  1.
        -24    1    1    2    0    0 -0.67817848701E+02 -0.73736381787E+01 -0.67112986100E+02  0.12500000000E+03  0.80419002446E+02 0. -1.
</event>
<event>
 4    1  0.1590495E-001  0.1250000E+03  0.7546771E-02  0.1126479E+00
        -11   -1    0    0    0    0  0.00000000000E+00  0.00000000000E+00  0.12500000000E+03  0.12500000000E+03  0.00000000000E+00 0.  1.
         11   -1    0    0    0    0 -0.00000000000E+00 -0.00000000000E+00 -0.12500000000E+03  0.12500000000E+03  0.00000000000E+00 0. -1.
         24    1    1    2    0    0  0.71751766633E+01  0.41323882612E+02  0.86015333583E+02  0.12500000000E+03  0.80419002446E+02 0.  1.
        -24    1    1    2    0    0 -0.71751766633E+01 -0.41323882612E+02 -0.86015333583E+02  0.12500000000E+03  0.80419002446E+02 0. -1.
</event>
<event>
 4    1  0.1590495E-001  0.1250000E+03  0.7546771E-02  0.1126479E+00
        -11   -1    0    0    0    0  0.00000000000E+00  0.00000000000E+00  0.12500000000E+03  0.12500000000E+03  0.00000000000E+00 0.  1.
         11   -1    0    0    0    0 -0.00000000000E+00 -0.00000000000E+00 -0.12500000000E+03  0.12500000000E+03  0.00000000000E+00 0. -1.
         24    1    1    2    0    0  0.30370281018E+02 -0.13680884197E+02  0.89712114478E+02  0.12500000000E+03  0.80419002446E+02 0.  1.
        -24    1    1    2    0    0 -0.30370281018E+02  0.13680884197E+02 -0.89712114478E+02  0.12500000000E+03  0.80419002446E+02 0. -1.
</event>
<event>
 4    1  0.1590495E-001  0.1250000E+03  0.7546771E-02  0.1126479E+00
        -11   -1    0    0    0    0  0.00000000000E+00  0.00000000000E+00  0.12500000000E+03  0.12500000000E+03  0.00000000000E+00 0.  1.
         11   -1    0    0    0    0 -0.00000000000E+00 -0.00000000000E+00 -0.12500000000E+03  0.12500000000E+03  0.00000000000E+00 0. -1.
         24    1    1    2    0    0  0.72117581261E+02  0.35306448378E+02 -0.52060476580E+02  0.12500000000E+03  0.80419002446E+02 0. -1.
        -24    1    1    2    0    0 -0.72117581261E+02 -0.35306448378E+02  0.52060476580E+02  0.12500000000E+03  0.80419002446E+02 0.  1.
</event>
<event>
 4    1  0.1590495E-001  0.1250000E+03  0.7546771E-02  0.1126479E+00
        -11   -1    0    0    0    0  0.00000000000E+00  0.00000000000E+00  0.12500000000E+03  0.12500000000E+03  0.00000000000E+00 0.  1.
         11   -1    0    0    0    0 -0.00000000000E+00 -0.00000000000E+00 -0.12500000000E+03  0.12500000000E+03  0.00000000000E+00 0. -1.
         24    1    1    2    0    0  0.33796589286E+02  0.21700703452E+02  0.86859968155E+02  0.12500000000E+03  0.80419002446E+02 0.  1.
        -24    1    1    2    0    0 -0.33796589286E+02 -0.21700703452E+02 -0.86859968155E+02  0.12500000000E+03  0.80419002446E+02 0. -1.
</event>
<event>
 4    1  0.1590495E-001  0.1250000E+03  0.7546771E-02  0.1126479E+00
        -11   -1    0    0    0    0  0.00000000000E+00  0.00000000000E+00  0.12500000000E+03  0.12500000000E+03  0.00000000000E+00 0.  1.
         11   -1    0    0    0    0 -0.00000000000E+00 -0.00000000000E+00 -0.12500000000E+03  0.12500000000E+03  0.00000000000E+00 0. -1.
         24    1    1    2    0    0  0.42476340997E+01 -0.11087683446E+01  0.95595566231E+02  0.12500000000E+03  0.80419002446E+02 0.  1.
        -24    1    1    2    0    0 -0.42476340997E+01  0.11087683446E+01 -0.95595566231E+02  0.12500000000E+03  0.80419002446E+02 0.  0.
</event>
<event>
 4    1  0.1590495E-001  0.1250000E+03  0.7546771E-02  0.1126479E+00
        -11   -1    0    0    0    0  0.00000000000E+00  0.00000000000E+00  0.12500000000E+03  0.12500000000E+03  0.00000000000E+00 0.  1.
         11   -1    0    0    0    0 -0.00000000000E+00 -0.00000000000E+00 -0.12500000000E+03  0.12500000000E+03  0.00000000000E+00 0. -1.
         24    1    1    2    0    0  0.25334947314E+02 -0.42247718744E+02  0.82043005498E+02  0.12500000000E+03  0.80419002446E+02 0.  1.
        -24    1    1    2    0    0 -0.25334947314E+02  0.42247718744E+02 -0.82043005498E+02  0.12500000000E+03  0.80419002446E+02 0. -1.
</event>
<event>
 4    1  0.1590495E-001  0.1250000E+03  0.7546771E-02  0.1126479E+00
        -11   -1    0    0    0    0  0.00000000000E+00  0.00000000000E+00  0.12500000000E+03  0.12500000000E+03  0.00000000000E+00 0.  1.
         11   -1    0    0    0    0 -0.00000000000E+00 -0.00000000000E+00 -0.12500000000E+03  0.12500000000E+03  0.00000000000E+00 0. -1.
         24    1    1    2    0    0 -0.88592440781E+02  0.10247237560E+02  0.34700974115E+02  0.12500000000E+03  0.80419002446E+02 0. -1.
        -24    1    1    2    0    0  0.88592440781E+02 -0.10247237560E+02 -0.34700974115E+02  0.12500000000E+03  0.80419002446E+02 0.  1.
</event>
<event>
 4    1  0.1590495E-001  0.1250000E+03  0.7546771E-02  0.1126479E+00
        -11   -1    0    0    0    0  0.00000000000E+00  0.00000000000E+00  0.12500000000E+03  0.12500000000E+03  0.00000000000E+00 0.  1.
         11   -1    0    0    0    0 -0.00000000000E+00 -0.00000000000E+00 -0.12500000000E+03  0.12500000000E+03  0.00000000000E+00 0. -1.
         24    1    1    2    0    0  0.29829617491E+02 -0.78765134270E+01  0.90586635340E+02  0.12500000000E+03  0.80419002446E+02 0.  1.
        -24    1    1    2    0    0 -0.29829617491E+02  0.78765134270E+01 -0.90586635340E+02  0.12500000000E+03  0.80419002446E+02 0. -1.
</event>
<event>
 4    1  0.1590495E-001  0.1250000E+03  0.7546771E-02  0.1126479E+00
        -11   -1    0    0    0    0  0.00000000000E+00  0.00000000000E+00  0.12500000000E+03  0.12500000000E+03  0.00000000000E+00 0.  1.
         11   -1    0    0    0    0 -0.00000000000E+00 -0.00000000000E+00 -0.12500000000E+03  0.12500000000E+03  0.00000000000E+00 0. -1.
         24    1    1    2    0    0 -0.76423857383E+02  0.18678679936E+01  0.57564651805E+02  0.12500000000E+03  0.80419002446E+02 0.  0.
        -24    1    1    2    0    0  0.76423857383E+02 -0.18678679936E+01 -0.57564651805E+02  0.12500000000E+03  0.80419002446E+02 0. -1.
</event>
<event>
 4    1  0.1590495E-001  0.1250000E+03  0.7546771E-02  0.1126479E+00
        -11   -1    0    0    0    0  0.00000000000E+00  0.00000000000E+00  0.12500000000E+03  0.12500000000E+03  0.00000000000E+00 0.  1.
         11   -1    0    0    0    0 -0.00000000000E+00 -0.00000000000E+00 -0.12500000000E+03  0.12500000000E+03  0.00000000000E+00 0. -1.
         24    1    1    2    0    0 -0.16963814106E+02  0.22866233410E+02  0.91362729963E+02  0.12500000000E+03  0.80419002446E+02 0.  1.
        -24    1    1    2    0    0  0.16963814106E+02 -0.22866233410E+02 -0.91362729963E+02  0.12500000000E+03  0.80419002446E+02 0. -1.
</event>
<event>
 4    1  0.1590495E-001  0.1250000E+03  0.7546771E-02  0.1126479E+00
        -11   -1    0    0    0    0  0.00000000000E+00  0.00000000000E+00  0.12500000000E+03  0.12500000000E+03  0.00000000000E+00 0.  1.
         11   -1    0    0    0    0 -0.00000000000E+00 -0.00000000000E+00 -0.12500000000E+03  0.12500000000E+03  0.00000000000E+00 0. -1.
         24    1    1    2    0    0 -0.24025803165E+02 -0.31200183160E+02  0.87218652814E+02  0.12500000000E+03  0.80419002446E+02 0.  1.
        -24    1    1    2    0    0  0.24025803165E+02  0.31200183160E+02 -0.87218652814E+02  0.12500000000E+03  0.80419002446E+02 0. -1.
</event>
<event>
 4    1  0.1590495E-001  0.1250000E+03  0.7546771E-02  0.1126479E+00
        -11   -1    0    0    0    0  0.00000000000E+00  0.00000000000E+00  0.12500000000E+03  0.12500000000E+03  0.00000000000E+00 0.  1.
         11   -1    0    0    0    0 -0.00000000000E+00 -0.00000000000E+00 -0.12500000000E+03  0.12500000000E+03  0.00000000000E+00 0. -1.
         24    1    1    2    0    0 -0.33279470645E+02  0.52594737614E+02  0.72691501942E+02  0.12500000000E+03  0.80419002446E+02 0.  1.
        -24    1    1    2    0    0  0.33279470645E+02 -0.52594737614E+02 -0.72691501942E+02  0.12500000000E+03  0.80419002446E+02 0. -1.
</event>
<event>
 4    1  0.1590495E-001  0.1250000E+03  0.7546771E-02  0.1126479E+00
        -11   -1    0    0    0    0  0.00000000000E+00  0.00000000000E+00  0.12500000000E+03  0.12500000000E+03  0.00000000000E+00 0.  1.
         11   -1    0    0    0    0 -0.00000000000E+00 -0.00000000000E+00 -0.12500000000E+03  0.12500000000E+03  0.00000000000E+00 0. -1.
         24    1    1    2    0    0 -0.11171010679E+02  0.47306377422E+02  0.82432391820E+02  0.12500000000E+03  0.80419002446E+02 0.  1.
        -24    1    1    2    0    0  0.11171010679E+02 -0.47306377422E+02 -0.82432391820E+02  0.12500000000E+03  0.80419002446E+02 0. -1.
</event>
<event>
 4    1  0.1590495E-001  0.1250000E+03  0.7546771E-02  0.1126479E+00
        -11   -1    0    0    0    0  0.00000000000E+00  0.00000000000E+00  0.12500000000E+03  0.12500000000E+03  0.00000000000E+00 0.  1.
         11   -1    0    0    0    0 -0.00000000000E+00 -0.00000000000E+00 -0.12500000000E+03  0.12500000000E+03  0.00000000000E+00 0. -1.
         24    1    1    2    0    0 -0.21657249886E+02  0.49266391204E+02  0.79130084486E+02  0.12500000000E+03  0.80419002446E+02 0.  1.
        -24    1    1    2    0    0  0.21657249886E+02 -0.49266391204E+02 -0.79130084486E+02  0.12500000000E+03  0.80419002446E+02 0. -1.
</event>
<event>
 4    1  0.1590495E-001  0.1250000E+03  0.7546771E-02  0.1126479E+00
        -11   -1    0    0    0    0  0.00000000000E+00  0.00000000000E+00  0.12500000000E+03  0.12500000000E+03  0.00000000000E+00 0.  1.
         11   -1    0    0    0    0 -0.00000000000E+00 -0.00000000000E+00 -0.12500000000E+03  0.12500000000E+03  0.00000000000E+00 0. -1.
         24    1    1    2    0    0  0.81895910594E+02 -0.49381107775E+02  0.35142664366E+01  0.12500000000E+03  0.80419002446E+02 0.  1.
        -24    1    1    2    0    0 -0.81895910594E+02  0.49381107775E+02 -0.35142664366E+01  0.12500000000E+03  0.80419002446E+02 0. -1.
</event>
<event>
 4    1  0.1590495E-001  0.1250000E+03  0.7546771E-02  0.1126479E+00
        -11   -1    0    0    0    0  0.00000000000E+00  0.00000000000E+00  0.12500000000E+03  0.12500000000E+03  0.00000000000E+00 0.  1.
         11   -1    0    0    0    0 -0.00000000000E+00 -0.00000000000E+00 -0.12500000000E+03  0.12500000000E+03  0.00000000000E+00 0. -1.
         24    1    1    2    0    0  0.60364431588E+02  0.30911814826E+01  0.74191401400E+02  0.12500000000E+03  0.80419002446E+02 0.  1.
        -24    1    1    2    0    0 -0.60364431588E+02 -0.30911814826E+01 -0.74191401400E+02  0.12500000000E+03  0.80419002446E+02 0. -1.
</event>
<event>
 4    1  0.1590495E-001  0.1250000E+03  0.7546771E-02  0.1126479E+00
        -11   -1    0    0    0    0  0.00000000000E+00  0.00000000000E+00  0.12500000000E+03  0.12500000000E+03  0.00000000000E+00 0.  1.
         11   -1    0    0    0    0 -0.00000000000E+00 -0.00000000000E+00 -0.12500000000E+03  0.12500000000E+03  0.00000000000E+00 0. -1.
         24    1    1    2    0    0 -0.21146475907E+02  0.24953704873E+02  0.89932881726E+02  0.12500000000E+03  0.80419002446E+02 0.  1.
        -24    1    1    2    0    0  0.21146475907E+02 -0.24953704873E+02 -0.89932881726E+02  0.12500000000E+03  0.80419002446E+02 0. -1.
</event>
<event>
 4    1  0.1590495E-001  0.1250000E+03  0.7546771E-02  0.1126479E+00
        -11   -1    0    0    0    0  0.00000000000E+00  0.00000000000E+00  0.12500000000E+03  0.12500000000E+03  0.00000000000E+00 0.  1.
         11   -1    0    0    0    0 -0.00000000000E+00 -0.00000000000E+00 -0.12500000000E+03  0.12500000000E+03  0.00000000000E+00 0. -1.
         24    1    1    2    0    0  0.23968072367E+02  0.14952705077E+01  0.92634117466E+02  0.12500000000E+03  0.80419002446E+02 0.  0.
        -24    1    1    2    0    0 -0.23968072367E+02 -0.14952705077E+01 -0.92634117466E+02  0.12500000000E+03  0.80419002446E+02 0.  0.
</event>
<event>
 4    1  0.1590495E-001  0.1250000E+03  0.7546771E-02  0.1126479E+00
        -11   -1    0    0    0    0  0.00000000000E+00  0.00000000000E+00  0.12500000000E+03  0.12500000000E+03  0.00000000000E+00 0.  1.
         11   -1    0    0    0    0 -0.00000000000E+00 -0.00000000000E+00 -0.12500000000E+03  0.12500000000E+03  0.00000000000E+00 0. -1.
         24    1    1    2    0    0  0.23017427421E+02 -0.92161128298E+02  0.11589154907E+02  0.12500000000E+03  0.80419002446E+02 0.  1.
        -24    1    1    2    0    0 -0.23017427421E+02  0.92161128298E+02 -0.11589154907E+02  0.12500000000E+03  0.80419002446E+02 0. -1.
</event>
<event>
 4    1  0.1590495E-001  0.1250000E+03  0.7546771E-02  0.1126479E+00
        -11   -1    0    0    0    0  0.00000000000E+00  0.00000000000E+00  0.12500000000E+03  0.12500000000E+03  0.00000000000E+00 0.  1.
         11   -1    0    0    0    0 -0.00000000000E+00 -0.00000000000E+00 -0.12500000000E+03  0.12500000000E+03  0.00000000000E+00 0. -1.
         24    1    1    2    0    0  0.10713491518E+02 -0.15758686457E+02  0.93779896280E+02  0.12500000000E+03  0.80419002446E+02 0.  1.
        -24    1    1    2    0    0 -0.10713491518E+02  0.15758686457E+02 -0.93779896280E+02  0.12500000000E+03  0.80419002446E+02 0.  0.
</event>
<event>
 4    1  0.1590495E-001  0.1250000E+03  0.7546771E-02  0.1126479E+00
        -11   -1    0    0    0    0  0.00000000000E+00  0.00000000000E+00  0.12500000000E+03  0.12500000000E+03  0.00000000000E+00 0.  1.
         11   -1    0    0    0    0 -0.00000000000E+00 -0.00000000000E+00 -0.12500000000E+03  0.12500000000E+03  0.00000000000E+00 0. -1.
         24    1    1    2    0    0  0.16062981395E+02  0.51129515365E+02  0.79281380745E+02  0.12500000000E+03  0.80419002446E+02 0.  1.
        -24    1    1    2    0    0 -0.16062981395E+02 -0.51129515365E+02 -0.79281380745E+02  0.12500000000E+03  0.80419002446E+02 0. -1.
</event>
<event>
 4    1  0.1590495E-001  0.1250000E+03  0.7546771E-02  0.1126479E+00
        -11   -1    0    0    0    0  0.00000000000E+00  0.00000000000E+00  0.12500000000E+03  0.12500000000E+03  0.00000000000E+00 0.  1.
         11   -1    0    0    0    0 -0.00000000000E+00 -0.00000000000E+00 -0.12500000000E+03  0.12500000000E+03  0.00000000000E+00 0. -1.
         24    1    1    2    0    0 -0.68217128708E+00  0.55684785730E+01  0.95531726323E+02  0.12500000000E+03  0.80419002446E+02 0.  1.
        -24    1    1    2    0    0  0.68217128708E+00 -0.55684785730E+01 -0.95531726323E+02  0.12500000000E+03  0.80419002446E+02 0.  0.
</event>
<event>
 4    1  0.1590495E-001  0.1250000E+03  0.7546771E-02  0.1126479E+00
        -11   -1    0    0    0    0  0.00000000000E+00  0.00000000000E+00  0.12500000000E+03  0.12500000000E+03  0.00000000000E+00 0.  1.
         11   -1    0    0    0    0 -0.00000000000E+00 -0.00000000000E+00 -0.12500000000E+03  0.12500000000E+03  0.00000000000E+00 0. -1.
         24    1    1    2    0    0  0.64592706972E+01 -0.36638214450E+02  0.88168606145E+02  0.12500000000E+03  0.80419002446E+02 0.  1.
        -24    1    1    2    0    0 -0.64592706972E+01  0.36638214450E+02 -0.88168606145E+02  0.12500000000E+03  0.80419002446E+02 0. -1.
</event>
<event>
 4    1  0.1590495E-001  0.1250000E+03  0.7546771E-02  0.1126479E+00
        -11   -1    0    0    0    0  0.00000000000E+00  0.00000000000E+00  0.12500000000E+03  0.12500000000E+03  0.00000000000E+00 0.  1.
         11   -1    0    0    0    0 -0.00000000000E+00 -0.00000000000E+00 -0.12500000000E+03  0.12500000000E+03  0.00000000000E+00 0. -1.
         24    1    1    2    0    0  0.80001886136E+00  0.16907831361E+02  0.94187415583E+02  0.12500000000E+03  0.80419002446E+02 0.  0.
        -24    1    1    2    0    0 -0.80001886136E+00 -0.16907831361E+02 -0.94187415583E+02  0.12500000000E+03  0.80419002446E+02 0. -1.
</event>
<event>
 4    1  0.1590495E-001  0.1250000E+03  0.7546771E-02  0.1126479E+00
        -11   -1    0    0    0    0  0.00000000000E+00  0.00000000000E+00  0.12500000000E+03  0.12500000000E+03  0.00000000000E+00 0.  1.
         11   -1    0    0    0    0 -0.00000000000E+00 -0.00000000000E+00 -0.12500000000E+03  0.12500000000E+03  0.00000000000E+00 0. -1.
         24    1    1    2    0    0 -0.14520713804E+02  0.34755852395E+01  0.94524352542E+02  0.12500000000E+03  0.80419002446E+02 0.  0.
        -24    1    1    2    0    0  0.14520713804E+02 -0.34755852395E+01 -0.94524352542E+02  0.12500000000E+03  0.80419002446E+02 0. -1.
</event>
<event>
 4    1  0.1590495E-001  0.1250000E+03  0.7546771E-02  0.1126479E+00
        -11   -1    0    0    0    0  0.00000000000E+00  0.00000000000E+00  0.12500000000E+03  0.12500000000E+03  0.00000000000E+00 0.  1.
         11   -1    0    0    0    0 -0.00000000000E+00 -0.00000000000E+00 -0.12500000000E+03  0.12500000000E+03  0.00000000000E+00 0. -1.
         24    1    1    2    0    0  0.13262559546E+02  0.53340538889E+02  0.78336935547E+02  0.12500000000E+03  0.80419002446E+02 0.  1.
        -24    1    1    2    0    0 -0.13262559546E+02 -0.53340538889E+02 -0.78336935547E+02  0.12500000000E+03  0.80419002446E+02 0. -1.
</event>
<event>
 4    1  0.1590495E-001  0.1250000E+03  0.7546771E-02  0.1126479E+00
        -11   -1    0    0    0    0  0.00000000000E+00  0.00000000000E+00  0.12500000000E+03  0.12500000000E+03  0.00000000000E+00 0.  1.
         11   -1    0    0    0    0 -0.00000000000E+00 -0.00000000000E+00 -0.12500000000E+03  0.12500000000E+03  0.00000000000E+00 0. -1.
         24    1    1    2    0    0  0.28959062486E+02  0.28386803762E+02  0.86679559977E+02  0.12500000000E+03  0.80419002446E+02 0.  1.
        -24    1    1    2    0    0 -0.28959062486E+02 -0.28386803762E+02 -0.86679559977E+02  0.12500000000E+03  0.80419002446E+02 0. -1.
</event>
<event>
 4    1  0.1590495E-001  0.1250000E+03  0.7546771E-02  0.1126479E+00
        -11   -1    0    0    0    0  0.00000000000E+00  0.00000000000E+00  0.12500000000E+03  0.12500000000E+03  0.00000000000E+00 0.  1.
         11   -1    0    0    0    0 -0.00000000000E+00 -0.00000000000E+00 -0.12500000000E+03  0.12500000000E+03  0.00000000000E+00 0. -1.
         24    1    1    2    0    0 -0.64152643537E+02 -0.52258754784E+02  0.48075408696E+02  0.12500000000E+03  0.80419002446E+02 0.  1.
        -24    1    1    2    0    0  0.64152643537E+02  0.52258754784E+02 -0.48075408696E+02  0.12500000000E+03  0.80419002446E+02 0. -1.
</event>
<event>
 4    1  0.1590495E-001  0.1250000E+03  0.7546771E-02  0.1126479E+00
        -11   -1    0    0    0    0  0.00000000000E+00  0.00000000000E+00  0.12500000000E+03  0.12500000000E+03  0.00000000000E+00 0.  1.
         11   -1    0    0    0    0 -0.00000000000E+00 -0.00000000000E+00 -0.12500000000E+03  0.12500000000E+03  0.00000000000E+00 0. -1.
         24    1    1    2    0    0 -0.43707134177E+02  0.33124890141E+02  0.78423288128E+02  0.12500000000E+03  0.80419002446E+02 0.  1.
        -24    1    1    2    0    0  0.43707134177E+02 -0.33124890141E+02 -0.78423288128E+02  0.12500000000E+03  0.80419002446E+02 0. -1.
</event>
<event>
 4    1  0.1590495E-001  0.1250000E+03  0.7546771E-02  0.1126479E+00
        -11   -1    0    0    0    0  0.00000000000E+00  0.00000000000E+00  0.12500000000E+03  0.12500000000E+03  0.00000000000E+00 0.  1.
         11   -1    0    0    0    0 -0.00000000000E+00 -0.00000000000E+00 -0.12500000000E+03  0.12500000000E+03  0.00000000000E+00 0. -1.
         24    1    1    2    0    0 -0.19358078862E+02 -0.34746603930E+02  0.87038625585E+02  0.12500000000E+03  0.80419002446E+02 0.  1.
        -24    1    1    2    0    0  0.19358078862E+02  0.34746603930E+02 -0.87038625585E+02  0.12500000000E+03  0.80419002446E+02 0. -1.
</event>
<event>
 4    1  0.1590495E-001  0.1250000E+03  0.7546771E-02  0.1126479E+00
        -11   -1    0    0    0    0  0.00000000000E+00  0.00000000000E+00  0.12500000000E+03  0.12500000000E+03  0.00000000000E+00 0.  1.
         11   -1    0    0    0    0 -0.00000000000E+00 -0.00000000000E+00 -0.12500000000E+03  0.12500000000E+03  0.00000000000E+00 0. -1.
         24    1    1    2    0    0  0.40152674539E+02  0.84781898426E+02  0.18909692548E+02  0.12500000000E+03  0.80419002446E+02 0. -1.
        -24    1    1    2    0    0 -0.40152674539E+02 -0.84781898426E+02 -0.18909692548E+02  0.12500000000E+03  0.80419002446E+02 0.  1.
</event>
<event>
 4    1  0.1590495E-001  0.1250000E+03  0.7546771E-02  0.1126479E+00
        -11   -1    0    0    0    0  0.00000000000E+00  0.00000000000E+00  0.12500000000E+03  0.12500000000E+03  0.00000000000E+00 0.  1.
         11   -1    0    0    0    0 -0.00000000000E+00 -0.00000000000E+00 -0.12500000000E+03  0.12500000000E+03  0.00000000000E+00 0. -1.
         24    1    1    2    0    0  0.54104535923E+02  0.39665727638E+02  0.68243045720E+02  0.12500000000E+03  0.80419002446E+02 0.  0.
        -24    1    1    2    0    0 -0.54104535923E+02 -0.39665727638E+02 -0.68243045720E+02  0.12500000000E+03  0.80419002446E+02 0.  1.
</event>
<event>
 4    1  0.1590495E-001  0.1250000E+03  0.7546771E-02  0.1126479E+00
        -11   -1    0    0    0    0  0.00000000000E+00  0.00000000000E+00  0.12500000000E+03  0.12500000000E+03  0.00000000000E+00 0.  1.
         11   -1    0    0    0    0 -0.00000000000E+00 -0.00000000000E+00 -0.12500000000E+03  0.12500000000E+03  0.00000000000E+00 0. -1.
         24    1    1    2    0    0  0.14046685054E+02 -0.68395862160E+02  0.65440665675E+02  0.12500000000E+03  0.80419002446E+02 0.  1.
        -24    1    1    2    0    0 -0.14046685054E+02  0.68395862160E+02 -0.65440665675E+02  0.12500000000E+03  0.80419002446E+02 0. -1.
</event>
<event>
 4    1  0.1590495E-001  0.1250000E+03  0.7546771E-02  0.1126479E+00
        -11   -1    0    0    0    0  0.00000000000E+00  0.00000000000E+00  0.12500000000E+03  0.12500000000E+03  0.00000000000E+00 0.  1.
         11   -1    0    0    0    0 -0.00000000000E+00 -0.00000000000E+00 -0.12500000000E+03  0.12500000000E+03  0.00000000000E+00 0. -1.
         24    1    1    2    0    0  0.68100025686E+02 -0.45875198353E+01  0.67075518701E+02  0.12500000000E+03  0.80419002446E+02 0.  1.
        -24    1    1    2    0    0 -0.68100025686E+02  0.45875198353E+01 -0.67075518701E+02  0.12500000000E+03  0.80419002446E+02 0. -1.
</event>
<event>
 4    1  0.1590495E-001  0.1250000E+03  0.7546771E-02  0.1126479E+00
        -11   -1    0    0    0    0  0.00000000000E+00  0.00000000000E+00  0.12500000000E+03  0.12500000000E+03  0.00000000000E+00 0.  1.
         11   -1    0    0    0    0 -0.00000000000E+00 -0.00000000000E+00 -0.12500000000E+03  0.12500000000E+03  0.00000000000E+00 0. -1.
         24    1    1    2    0    0  0.80187637902E+02  0.33623216858E+02 -0.39965060509E+02  0.12500000000E+03  0.80419002446E+02 0.  1.
        -24    1    1    2    0    0 -0.80187637902E+02 -0.33623216858E+02  0.39965060509E+02  0.12500000000E+03  0.80419002446E+02 0.  0.
</event>
<event>
 4    1  0.1590495E-001  0.1250000E+03  0.7546771E-02  0.1126479E+00
        -11   -1    0    0    0    0  0.00000000000E+00  0.00000000000E+00  0.12500000000E+03  0.12500000000E+03  0.00000000000E+00 0.  1.
         11   -1    0    0    0    0 -0.00000000000E+00 -0.00000000000E+00 -0.12500000000E+03  0.12500000000E+03  0.00000000000E+00 0. -1.
         24    1    1    2    0    0 -0.33594834564E+02 -0.26735846221E+02  0.85524064819E+02  0.12500000000E+03  0.80419002446E+02 0.  1.
        -24    1    1    2    0    0  0.33594834564E+02  0.26735846221E+02 -0.85524064819E+02  0.12500000000E+03  0.80419002446E+02 0. -1.
</event>
<event>
 4    1  0.1590495E-001  0.1250000E+03  0.7546771E-02  0.1126479E+00
        -11   -1    0    0    0    0  0.00000000000E+00  0.00000000000E+00  0.12500000000E+03  0.12500000000E+03  0.00000000000E+00 0.  1.
         11   -1    0    0    0    0 -0.00000000000E+00 -0.00000000000E+00 -0.12500000000E+03  0.12500000000E+03  0.00000000000E+00 0. -1.
         24    1    1    2    0    0 -0.20586779812E+01  0.23473748320E+02  0.92749819571E+02  0.12500000000E+03  0.80419002446E+02 0.  1.
        -24    1    1    2    0    0  0.20586779812E+01 -0.23473748320E+02 -0.92749819571E+02  0.12500000000E+03  0.80419002446E+02 0.  0.
</event>
<event>
 4    1  0.1590495E-001  0.1250000E+03  0.7546771E-02  0.1126479E+00
        -11   -1    0    0    0    0  0.00000000000E+00  0.00000000000E+00  0.12500000000E+03  0.12500000000E+03  0.00000000000E+00 0.  1.
         11   -1    0    0    0    0 -0.00000000000E+00 -0.00000000000E+00 -0.12500000000E+03  0.12500000000E+03  0.00000000000E+00 0. -1.
         24    1    1    2    0    0  0.54242352128E+01 -0.48704729531E+02  0.82196174116E+02  0.12500000000E+03  0.80419002446E+02 0.  1.
        -24    1    1    2    0    0 -0.54242352128E+01  0.48704729531E+02 -0.82196174116E+02  0.12500000000E+03  0.80419002446E+02 0. -1.
</event>
<event>
 4    1  0.1590495E-001  0.1250000E+03  0.7546771E-02  0.1126479E+00
        -11   -1    0    0    0    0  0.00000000000E+00  0.00000000000E+00  0.12500000000E+03  0.12500000000E+03  0.00000000000E+00 0.  1.
         11   -1    0    0    0    0 -0.00000000000E+00 -0.00000000000E+00 -0.12500000000E+03  0.12500000000E+03  0.00000000000E+00 0. -1.
         24    1    1    2    0    0 -0.13328302445E+01  0.43978584136E+02  0.84981714190E+02  0.12500000000E+03  0.80419002446E+02 0.  1.
        -24    1    1    2    0    0  0.13328302445E+01 -0.43978584136E+02 -0.84981714190E+02  0.12500000000E+03  0.80419002446E+02 0. -1.
</event>
<event>
 4    1  0.1590495E-001  0.1250000E+03  0.7546771E-02  0.1126479E+00
        -11   -1    0    0    0    0  0.00000000000E+00  0.00000000000E+00  0.12500000000E+03  0.12500000000E+03  0.00000000000E+00 0.  1.
         11   -1    0    0    0    0 -0.00000000000E+00 -0.00000000000E+00 -0.12500000000E+03  0.12500000000E+03  0.00000000000E+00 0. -1.
         24    1    1    2    0    0  0.44462118392E+02  0.42674722085E+02  0.73210464885E+02  0.12500000000E+03  0.80419002446E+02 0.  1.
        -24    1    1    2    0    0 -0.44462118392E+02 -0.42674722085E+02 -0.73210464885E+02  0.12500000000E+03  0.80419002446E+02 0. -1.
</event>
<event>
 4    1  0.1590495E-001  0.1250000E+03  0.7546771E-02  0.1126479E+00
        -11   -1    0    0    0    0  0.00000000000E+00  0.00000000000E+00  0.12500000000E+03  0.12500000000E+03  0.00000000000E+00 0.  1.
         11   -1    0    0    0    0 -0.00000000000E+00 -0.00000000000E+00 -0.12500000000E+03  0.12500000000E+03  0.00000000000E+00 0. -1.
         24    1    1    2    0    0  0.37118109939E+02 -0.67803415647E+01  0.87943487129E+02  0.12500000000E+03  0.80419002446E+02 0.  1.
        -24    1    1    2    0    0 -0.37118109939E+02  0.67803415647E+01 -0.87943487129E+02  0.12500000000E+03  0.80419002446E+02 0. -1.
</event>
<event>
 4    1  0.1590495E-001  0.1250000E+03  0.7546771E-02  0.1126479E+00
        -11   -1    0    0    0    0  0.00000000000E+00  0.00000000000E+00  0.12500000000E+03  0.12500000000E+03  0.00000000000E+00 0.  1.
         11   -1    0    0    0    0 -0.00000000000E+00 -0.00000000000E+00 -0.12500000000E+03  0.12500000000E+03  0.00000000000E+00 0. -1.
         24    1    1    2    0    0  0.44685953435E+02 -0.30226793014E+02  0.79039803867E+02  0.12500000000E+03  0.80419002446E+02 0.  1.
        -24    1    1    2    0    0 -0.44685953435E+02  0.30226793014E+02 -0.79039803867E+02  0.12500000000E+03  0.80419002446E+02 0. -1.
</event>
<event>
 4    1  0.1590495E-001  0.1250000E+03  0.7546771E-02  0.1126479E+00
        -11   -1    0    0    0    0  0.00000000000E+00  0.00000000000E+00  0.12500000000E+03  0.12500000000E+03  0.00000000000E+00 0.  1.
         11   -1    0    0    0    0 -0.00000000000E+00 -0.00000000000E+00 -0.12500000000E+03  0.12500000000E+03  0.00000000000E+00 0. -1.
         24    1    1    2    0    0  0.40813913292E+02  0.54686819226E+02  0.67092177863E+02  0.12500000000E+03  0.80419002446E+02 0.  1.
        -24    1    1    2    0    0 -0.40813913292E+02 -0.54686819226E+02 -0.67092177863E+02  0.12500000000E+03  0.80419002446E+02 0. -1.
</event>
<event>
 4    1  0.1590495E-001  0.1250000E+03  0.7546771E-02  0.1126479E+00
        -11   -1    0    0    0    0  0.00000000000E+00  0.00000000000E+00  0.12500000000E+03  0.12500000000E+03  0.00000000000E+00 0.  1.
         11   -1    0    0    0    0 -0.00000000000E+00 -0.00000000000E+00 -0.12500000000E+03  0.12500000000E+03  0.00000000000E+00 0. -1.
         24    1    1    2    0    0 -0.10690761177E+02  0.48510237731E+02  0.81793939301E+02  0.12500000000E+03  0.80419002446E+02 0.  0.
        -24    1    1    2    0    0  0.10690761177E+02 -0.48510237731E+02 -0.81793939301E+02  0.12500000000E+03  0.80419002446E+02 0.  1.
</event>
<event>
 4    1  0.1590495E-001  0.1250000E+03  0.7546771E-02  0.1126479E+00
        -11   -1    0    0    0    0  0.00000000000E+00  0.00000000000E+00  0.12500000000E+03  0.12500000000E+03  0.00000000000E+00 0.  1.
         11   -1    0    0    0    0 -0.00000000000E+00 -0.00000000000E+00 -0.12500000000E+03  0.12500000000E+03  0.00000000000E+00 0. -1.
         24    1    1    2    0    0 -0.10444512121E+02 -0.80102902552E+02  0.51305177273E+02  0.12500000000E+03  0.80419002446E+02 0.  0.
        -24    1    1    2    0    0  0.10444512121E+02  0.80102902552E+02 -0.51305177273E+02  0.12500000000E+03  0.80419002446E+02 0. -1.
</event>
<event>
 4    1  0.1590495E-001  0.1250000E+03  0.7546771E-02  0.1126479E+00
        -11   -1    0    0    0    0  0.00000000000E+00  0.00000000000E+00  0.12500000000E+03  0.12500000000E+03  0.00000000000E+00 0.  1.
         11   -1    0    0    0    0 -0.00000000000E+00 -0.00000000000E+00 -0.12500000000E+03  0.12500000000E+03  0.00000000000E+00 0. -1.
         24    1    1    2    0    0 -0.14514868862E+02 -0.59879579748E+02  0.73222527659E+02  0.12500000000E+03  0.80419002446E+02 0.  0.
        -24    1    1    2    0    0  0.14514868862E+02  0.59879579748E+02 -0.73222527659E+02  0.12500000000E+03  0.80419002446E+02 0.  1.
</event>
<event>
 4    1  0.1590495E-001  0.1250000E+03  0.7546771E-02  0.1126479E+00
        -11   -1    0    0    0    0  0.00000000000E+00  0.00000000000E+00  0.12500000000E+03  0.12500000000E+03  0.00000000000E+00 0.  1.
         11   -1    0    0    0    0 -0.00000000000E+00 -0.00000000000E+00 -0.12500000000E+03  0.12500000000E+03  0.00000000000E+00 0. -1.
         24    1    1    2    0    0  0.15557864791E+02  0.64849198424E+02  0.68631759067E+02  0.12500000000E+03  0.80419002446E+02 0.  1.
        -24    1    1    2    0    0 -0.15557864791E+02 -0.64849198424E+02 -0.68631759067E+02  0.12500000000E+03  0.80419002446E+02 0. -1.
</event>
<event>
 4    1  0.1590495E-001  0.1250000E+03  0.7546771E-02  0.1126479E+00
        -11   -1    0    0    0    0  0.00000000000E+00  0.00000000000E+00  0.12500000000E+03  0.12500000000E+03  0.00000000000E+00 0.  1.
         11   -1    0    0    0    0 -0.00000000000E+00 -0.00000000000E+00 -0.12500000000E+03  0.12500000000E+03  0.00000000000E+00 0. -1.
         24    1    1    2    0    0 -0.67454638390E+02 -0.55813207012E+02  0.38633427602E+02  0.12500000000E+03  0.80419002446E+02 0.  1.
        -24    1    1    2    0    0  0.67454638390E+02  0.55813207012E+02 -0.38633427602E+02  0.12500000000E+03  0.80419002446E+02 0. -1.
</event>
<event>
 4    1  0.1590495E-001  0.1250000E+03  0.7546771E-02  0.1126479E+00
        -11   -1    0    0    0    0  0.00000000000E+00  0.00000000000E+00  0.12500000000E+03  0.12500000000E+03  0.00000000000E+00 0.  1.
         11   -1    0    0    0    0 -0.00000000000E+00 -0.00000000000E+00 -0.12500000000E+03  0.12500000000E+03  0.00000000000E+00 0. -1.
         24    1    1    2    0    0 -0.22579595895E+01 -0.57834729549E+02  0.76209118366E+02  0.12500000000E+03  0.80419002446E+02 0.  1.
        -24    1    1    2    0    0  0.22579595895E+01  0.57834729549E+02 -0.76209118366E+02  0.12500000000E+03  0.80419002446E+02 0. -1.
</event>
<event>
 4    1  0.1590495E-001  0.1250000E+03  0.7546771E-02  0.1126479E+00
        -11   -1    0    0    0    0  0.00000000000E+00  0.00000000000E+00  0.12500000000E+03  0.12500000000E+03  0.00000000000E+00 0.  1.
         11   -1    0    0    0    0 -0.00000000000E+00 -0.00000000000E+00 -0.12500000000E+03  0.12500000000E+03  0.00000000000E+00 0. -1.
         24    1    1    2    0    0  0.29781836535E+02  0.26113271524E+02  0.87114426524E+02  0.12500000000E+03  0.80419002446E+02 0.  1.
        -24    1    1    2    0    0 -0.29781836535E+02 -0.26113271524E+02 -0.87114426524E+02  0.12500000000E+03  0.80419002446E+02 0. -1.
</event>
<event>
 4    1  0.1590495E-001  0.1250000E+03  0.7546771E-02  0.1126479E+00
        -11   -1    0    0    0    0  0.00000000000E+00  0.00000000000E+00  0.12500000000E+03  0.12500000000E+03  0.00000000000E+00 0.  1.
         11   -1    0    0    0    0 -0.00000000000E+00 -0.00000000000E+00 -0.12500000000E+03  0.12500000000E+03  0.00000000000E+00 0. -1.
         24    1    1    2    0    0  0.23009956355E+02 -0.52174345659E+02  0.76851568684E+02  0.12500000000E+03  0.80419002446E+02 0.  0.
        -24    1    1    2    0    0 -0.23009956355E+02  0.52174345659E+02 -0.76851568684E+02  0.12500000000E+03  0.80419002446E+02 0.  1.
</event>
<event>
 4    1  0.1590495E-001  0.1250000E+03  0.7546771E-02  0.1126479E+00
        -11   -1    0    0    0    0  0.00000000000E+00  0.00000000000E+00  0.12500000000E+03  0.12500000000E+03  0.00000000000E+00 0.  1.
         11   -1    0    0    0    0 -0.00000000000E+00 -0.00000000000E+00 -0.12500000000E+03  0.12500000000E+03  0.00000000000E+00 0. -1.
         24    1    1    2    0    0 -0.12239219484E+02 -0.86525038645E+02  0.39005169396E+02  0.12500000000E+03  0.80419002446E+02 0.  1.
        -24    1    1    2    0    0  0.12239219484E+02  0.86525038645E+02 -0.39005169396E+02  0.12500000000E+03  0.80419002446E+02 0. -1.
</event>
<event>
 4    1  0.1590495E-001  0.1250000E+03  0.7546771E-02  0.1126479E+00
        -11   -1    0    0    0    0  0.00000000000E+00  0.00000000000E+00  0.12500000000E+03  0.12500000000E+03  0.00000000000E+00 0.  1.
         11   -1    0    0    0    0 -0.00000000000E+00 -0.00000000000E+00 -0.12500000000E+03  0.12500000000E+03  0.00000000000E+00 0. -1.
         24    1    1    2    0    0 -0.39647028090E+02 -0.16448992363E+02 -0.85529689930E+02  0.12500000000E+03  0.80419002446E+02 0.  0.
        -24    1    1    2    0    0  0.39647028090E+02  0.16448992363E+02  0.85529689930E+02  0.12500000000E+03  0.80419002446E+02 0.  0.
</event>
<event>
 4    1  0.1590495E-001  0.1250000E+03  0.7546771E-02  0.1126479E+00
        -11   -1    0    0    0    0  0.00000000000E+00  0.00000000000E+00  0.12500000000E+03  0.12500000000E+03  0.00000000000E+00 0.  1.
         11   -1    0    0    0    0 -0.00000000000E+00 -0.00000000000E+00 -0.12500000000E+03  0.12500000000E+03  0.00000000000E+00 0. -1.
         24    1    1    2    0    0  0.37447479749E+02  0.46163246838E+02  0.74996166218E+02  0.12500000000E+03  0.80419002446E+02 0.  1.
        -24    1    1    2    0    0 -0.37447479749E+02 -0.46163246838E+02 -0.74996166218E+02  0.12500000000E+03  0.80419002446E+02 0. -1.
</event>
<event>
 4    1  0.1590495E-001  0.1250000E+03  0.7546771E-02  0.1126479E+00
        -11   -1    0    0    0    0  0.00000000000E+00  0.00000000000E+00  0.12500000000E+03  0.12500000000E+03  0.00000000000E+00 0.  1.
         11   -1    0    0    0    0 -0.00000000000E+00 -0.00000000000E+00 -0.12500000000E+03  0.12500000000E+03  0.00000000000E+00 0. -1.
         24    1    1    2    0    0 -0.21560603129E+02 -0.53114648802E+02  0.76627400589E+02  0.12500000000E+03  0.80419002446E+02 0.  1.
        -24    1    1    2    0    0  0.21560603129E+02  0.53114648802E+02 -0.76627400589E+02  0.12500000000E+03  0.80419002446E+02 0. -1.
</event>
<event>
 4    1  0.1590495E-001  0.1250000E+03  0.7546771E-02  0.1126479E+00
        -11   -1    0    0    0    0  0.00000000000E+00  0.00000000000E+00  0.12500000000E+03  0.12500000000E+03  0.00000000000E+00 0.  1.
         11   -1    0    0    0    0 -0.00000000000E+00 -0.00000000000E+00 -0.12500000000E+03  0.12500000000E+03  0.00000000000E+00 0. -1.
         24    1    1    2    0    0 -0.47884885381E+02  0.74540506319E+02  0.36173674342E+02  0.12500000000E+03  0.80419002446E+02 0.  1.
        -24    1    1    2    0    0  0.47884885381E+02 -0.74540506319E+02 -0.36173674342E+02  0.12500000000E+03  0.80419002446E+02 0. -1.
</event>
<event>
 4    1  0.1590495E-001  0.1250000E+03  0.7546771E-02  0.1126479E+00
        -11   -1    0    0    0    0  0.00000000000E+00  0.00000000000E+00  0.12500000000E+03  0.12500000000E+03  0.00000000000E+00 0.  1.
         11   -1    0    0    0    0 -0.00000000000E+00 -0.00000000000E+00 -0.12500000000E+03  0.12500000000E+03  0.00000000000E+00 0. -1.
         24    1    1    2    0    0  0.30532582254E+01  0.11883185390E+02  0.94906541212E+02  0.12500000000E+03  0.80419002446E+02 0.  0.
        -24    1    1    2    0    0 -0.30532582254E+01 -0.11883185390E+02 -0.94906541212E+02  0.12500000000E+03  0.80419002446E+02 0.  0.
</event>
<event>
 4    1  0.1590495E-001  0.1250000E+03  0.7546771E-02  0.1126479E+00
        -11   -1    0    0    0    0  0.00000000000E+00  0.00000000000E+00  0.12500000000E+03  0.12500000000E+03  0.00000000000E+00 0.  1.
         11   -1    0    0    0    0 -0.00000000000E+00 -0.00000000000E+00 -0.12500000000E+03  0.12500000000E+03  0.00000000000E+00 0. -1.
         24    1    1    2    0    0  0.65008937385E+02 -0.59590941646E+02  0.37155642632E+02  0.12500000000E+03  0.80419002446E+02 0.  1.
        -24    1    1    2    0    0 -0.65008937385E+02  0.59590941646E+02 -0.37155642632E+02  0.12500000000E+03  0.80419002446E+02 0. -1.
</event>
<event>
 4    1  0.1590495E-001  0.1250000E+03  0.7546771E-02  0.1126479E+00
        -11   -1    0    0    0    0  0.00000000000E+00  0.00000000000E+00  0.12500000000E+03  0.12500000000E+03  0.00000000000E+00 0.  1.
         11   -1    0    0    0    0 -0.00000000000E+00 -0.00000000000E+00 -0.12500000000E+03  0.12500000000E+03  0.00000000000E+00 0. -1.
         24    1    1    2    0    0 -0.80799733895E+02 -0.37749910355E+02  0.34700595331E+02  0.12500000000E+03  0.80419002446E+02 0.  0.
        -24    1    1    2    0    0  0.80799733895E+02  0.37749910355E+02 -0.34700595331E+02  0.12500000000E+03  0.80419002446E+02 0. -1.
</event>
<event>
 4    1  0.1590495E-001  0.1250000E+03  0.7546771E-02  0.1126479E+00
        -11   -1    0    0    0    0  0.00000000000E+00  0.00000000000E+00  0.12500000000E+03  0.12500000000E+03  0.00000000000E+00 0.  1.
         11   -1    0    0    0    0 -0.00000000000E+00 -0.00000000000E+00 -0.12500000000E+03  0.12500000000E+03  0.00000000000E+00 0. -1.
         24    1    1    2    0    0  0.59601990617E+02  0.21381036661E+02  0.71751223206E+02  0.12500000000E+03  0.80419002446E+02 0.  1.
        -24    1    1    2    0    0 -0.59601990617E+02 -0.21381036661E+02 -0.71751223206E+02  0.12500000000E+03  0.80419002446E+02 0. -1.
</event>
<event>
 4    1  0.1590495E-001  0.1250000E+03  0.7546771E-02  0.1126479E+00
        -11   -1    0    0    0    0  0.00000000000E+00  0.00000000000E+00  0.12500000000E+03  0.12500000000E+03  0.00000000000E+00 0.  1.
         11   -1    0    0    0    0 -0.00000000000E+00 -0.00000000000E+00 -0.12500000000E+03  0.12500000000E+03  0.00000000000E+00 0. -1.
         24    1    1    2    0    0 -0.50604633678E+02  0.66688748011E+02  0.46363412134E+02  0.12500000000E+03  0.80419002446E+02 0. -1.
        -24    1    1    2    0    0  0.50604633678E+02 -0.66688748011E+02 -0.46363412134E+02  0.12500000000E+03  0.80419002446E+02 0.  0.
</event>
<event>
 4    1  0.1590495E-001  0.1250000E+03  0.7546771E-02  0.1126479E+00
        -11   -1    0    0    0    0  0.00000000000E+00  0.00000000000E+00  0.12500000000E+03  0.12500000000E+03  0.00000000000E+00 0.  1.
         11   -1    0    0    0    0 -0.00000000000E+00 -0.00000000000E+00 -0.12500000000E+03  0.12500000000E+03  0.00000000000E+00 0. -1.
         24    1    1    2    0    0 -0.67531525721E+02 -0.22107068899E+02  0.64098007646E+02  0.12500000000E+03  0.80419002446E+02 0.  1.
        -24    1    1    2    0    0  0.67531525721E+02  0.22107068899E+02 -0.64098007646E+02  0.12500000000E+03  0.80419002446E+02 0. -1.
</event>
<event>
 4    1  0.1590495E-001  0.1250000E+03  0.7546771E-02  0.1126479E+00
        -11   -1    0    0    0    0  0.00000000000E+00  0.00000000000E+00  0.12500000000E+03  0.12500000000E+03  0.00000000000E+00 0.  1.
         11   -1    0    0    0    0 -0.00000000000E+00 -0.00000000000E+00 -0.12500000000E+03  0.12500000000E+03  0.00000000000E+00 0. -1.
         24    1    1    2    0    0 -0.72772501557E+02  0.21564996841E+02  0.58282913225E+02  0.12500000000E+03  0.80419002446E+02 0. -1.
        -24    1    1    2    0    0  0.72772501557E+02 -0.21564996841E+02 -0.58282913225E+02  0.12500000000E+03  0.80419002446E+02 0.  1.
</event>
<event>
 4    1  0.1590495E-001  0.1250000E+03  0.7546771E-02  0.1126479E+00
        -11   -1    0    0    0    0  0.00000000000E+00  0.00000000000E+00  0.12500000000E+03  0.12500000000E+03  0.00000000000E+00 0.  1.
         11   -1    0    0    0    0 -0.00000000000E+00 -0.00000000000E+00 -0.12500000000E+03  0.12500000000E+03  0.00000000000E+00 0. -1.
         24    1    1    2    0    0  0.39368590181E+02 -0.64534823391E+02  0.58678400819E+02  0.12500000000E+03  0.80419002446E+02 0.  0.
        -24    1    1    2    0    0 -0.39368590181E+02  0.64534823391E+02 -0.58678400819E+02  0.12500000000E+03  0.80419002446E+02 0. -1.
</event>
<event>
 4    1  0.1590495E-001  0.1250000E+03  0.7546771E-02  0.1126479E+00
        -11   -1    0    0    0    0  0.00000000000E+00  0.00000000000E+00  0.12500000000E+03  0.12500000000E+03  0.00000000000E+00 0.  1.
         11   -1    0    0    0    0 -0.00000000000E+00 -0.00000000000E+00 -0.12500000000E+03  0.12500000000E+03  0.00000000000E+00 0. -1.
         24    1    1    2    0    0  0.44845781071E+02 -0.19878729209E+02  0.82167366337E+02  0.12500000000E+03  0.80419002446E+02 0.  1.
        -24    1    1    2    0    0 -0.44845781071E+02  0.19878729209E+02 -0.82167366337E+02  0.12500000000E+03  0.80419002446E+02 0. -1.
</event>
<event>
 4    1  0.1590495E-001  0.1250000E+03  0.7546771E-02  0.1126479E+00
        -11   -1    0    0    0    0  0.00000000000E+00  0.00000000000E+00  0.12500000000E+03  0.12500000000E+03  0.00000000000E+00 0.  1.
         11   -1    0    0    0    0 -0.00000000000E+00 -0.00000000000E+00 -0.12500000000E+03  0.12500000000E+03  0.00000000000E+00 0. -1.
         24    1    1    2    0    0 -0.36137121210E+02  0.65690239105E+02  0.59470034493E+02  0.12500000000E+03  0.80419002446E+02 0.  1.
        -24    1    1    2    0    0  0.36137121210E+02 -0.65690239105E+02 -0.59470034493E+02  0.12500000000E+03  0.80419002446E+02 0.  0.
</event>
<event>
 4    1  0.1590495E-001  0.1250000E+03  0.7546771E-02  0.1126479E+00
        -11   -1    0    0    0    0  0.00000000000E+00  0.00000000000E+00  0.12500000000E+03  0.12500000000E+03  0.00000000000E+00 0.  1.
         11   -1    0    0    0    0 -0.00000000000E+00 -0.00000000000E+00 -0.12500000000E+03  0.12500000000E+03  0.00000000000E+00 0. -1.
         24    1    1    2    0    0 -0.12848789619E+02 -0.53889346750E+02  0.78029679980E+02  0.12500000000E+03  0.80419002446E+02 0.  1.
        -24    1    1    2    0    0  0.12848789619E+02  0.53889346750E+02 -0.78029679980E+02  0.12500000000E+03  0.80419002446E+02 0. -1.
</event>
<event>
 4    1  0.1590495E-001  0.1250000E+03  0.7546771E-02  0.1126479E+00
        -11   -1    0    0    0    0  0.00000000000E+00  0.00000000000E+00  0.12500000000E+03  0.12500000000E+03  0.00000000000E+00 0.  1.
         11   -1    0    0    0    0 -0.00000000000E+00 -0.00000000000E+00 -0.12500000000E+03  0.12500000000E+03  0.00000000000E+00 0. -1.
         24    1    1    2    0    0 -0.20577886537E+01  0.29818566680E+02  0.90908759933E+02  0.12500000000E+03  0.80419002446E+02 0.  1.
        -24    1    1    2    0    0  0.20577886537E+01 -0.29818566680E+02 -0.90908759933E+02  0.12500000000E+03  0.80419002446E+02 0. -1.
</event>
<event>
 4    1  0.1590495E-001  0.1250000E+03  0.7546771E-02  0.1126479E+00
        -11   -1    0    0    0    0  0.00000000000E+00  0.00000000000E+00  0.12500000000E+03  0.12500000000E+03  0.00000000000E+00 0.  1.
         11   -1    0    0    0    0 -0.00000000000E+00 -0.00000000000E+00 -0.12500000000E+03  0.12500000000E+03  0.00000000000E+00 0. -1.
         24    1    1    2    0    0  0.89849962660E+02  0.83378123431E+01  0.31862974453E+02  0.12500000000E+03  0.80419002446E+02 0.  1.
        -24    1    1    2    0    0 -0.89849962660E+02 -0.83378123431E+01 -0.31862974453E+02  0.12500000000E+03  0.80419002446E+02 0. -1.
</event>
<event>
 4    1  0.1590495E-001  0.1250000E+03  0.7546771E-02  0.1126479E+00
        -11   -1    0    0    0    0  0.00000000000E+00  0.00000000000E+00  0.12500000000E+03  0.12500000000E+03  0.00000000000E+00 0.  1.
         11   -1    0    0    0    0 -0.00000000000E+00 -0.00000000000E+00 -0.12500000000E+03  0.12500000000E+03  0.00000000000E+00 0. -1.
         24    1    1    2    0    0 -0.15973617171E+02  0.73161133639E+02  0.59582515260E+02  0.12500000000E+03  0.80419002446E+02 0.  1.
        -24    1    1    2    0    0  0.15973617171E+02 -0.73161133639E+02 -0.59582515260E+02  0.12500000000E+03  0.80419002446E+02 0. -1.
</event>
<event>
 4    1  0.1590495E-001  0.1250000E+03  0.7546771E-02  0.1126479E+00
        -11   -1    0    0    0    0  0.00000000000E+00  0.00000000000E+00  0.12500000000E+03  0.12500000000E+03  0.00000000000E+00 0.  1.
         11   -1    0    0    0    0 -0.00000000000E+00 -0.00000000000E+00 -0.12500000000E+03  0.12500000000E+03  0.00000000000E+00 0. -1.
         24    1    1    2    0    0 -0.12697108085E+01  0.25473909229E+02  0.92234764751E+02  0.12500000000E+03  0.80419002446E+02 0.  1.
        -24    1    1    2    0    0  0.12697108085E+01 -0.25473909229E+02 -0.92234764751E+02  0.12500000000E+03  0.80419002446E+02 0. -1.
</event>
<event>
 4    1  0.1590495E-001  0.1250000E+03  0.7546771E-02  0.1126479E+00
        -11   -1    0    0    0    0  0.00000000000E+00  0.00000000000E+00  0.12500000000E+03  0.12500000000E+03  0.00000000000E+00 0.  1.
         11   -1    0    0    0    0 -0.00000000000E+00 -0.00000000000E+00 -0.12500000000E+03  0.12500000000E+03  0.00000000000E+00 0. -1.
         24    1    1    2    0    0  0.14163591974E+02 -0.20192474622E+02  0.92463185521E+02  0.12500000000E+03  0.80419002446E+02 0.  1.
        -24    1    1    2    0    0 -0.14163591974E+02  0.20192474622E+02 -0.92463185521E+02  0.12500000000E+03  0.80419002446E+02 0.  0.
</event>
<event>
 4    1  0.1590495E-001  0.1250000E+03  0.7546771E-02  0.1126479E+00
        -11   -1    0    0    0    0  0.00000000000E+00  0.00000000000E+00  0.12500000000E+03  0.12500000000E+03  0.00000000000E+00 0.  1.
         11   -1    0    0    0    0 -0.00000000000E+00 -0.00000000000E+00 -0.12500000000E+03  0.12500000000E+03  0.00000000000E+00 0. -1.
         24    1    1    2    0    0  0.34150953918E+02  0.50944242715E+02  0.73458699460E+02  0.12500000000E+03  0.80419002446E+02 0.  1.
        -24    1    1    2    0    0 -0.34150953918E+02 -0.50944242715E+02 -0.73458699460E+02  0.12500000000E+03  0.80419002446E+02 0. -1.
</event>
<event>
 4    1  0.1590495E-001  0.1250000E+03  0.7546771E-02  0.1126479E+00
        -11   -1    0    0    0    0  0.00000000000E+00  0.00000000000E+00  0.12500000000E+03  0.12500000000E+03  0.00000000000E+00 0.  1.
         11   -1    0    0    0    0 -0.00000000000E+00 -0.00000000000E+00 -0.12500000000E+03  0.12500000000E+03  0.00000000000E+00 0. -1.
         24    1    1    2    0    0  0.50450800969E+02 -0.30866988581E+02  0.75231175341E+02  0.12500000000E+03  0.80419002446E+02 0.  1.
        -24    1    1    2    0    0 -0.50450800969E+02  0.30866988581E+02 -0.75231175341E+02  0.12500000000E+03  0.80419002446E+02 0. -1.
</event>
<event>
 4    1  0.1590495E-001  0.1250000E+03  0.7546771E-02  0.1126479E+00
        -11   -1    0    0    0    0  0.00000000000E+00  0.00000000000E+00  0.12500000000E+03  0.12500000000E+03  0.00000000000E+00 0.  1.
         11   -1    0    0    0    0 -0.00000000000E+00 -0.00000000000E+00 -0.12500000000E+03  0.12500000000E+03  0.00000000000E+00 0. -1.
         24    1    1    2    0    0  0.46416903231E+02  0.60986417184E+01  0.83462936141E+02  0.12500000000E+03  0.80419002446E+02 0.  1.
        -24    1    1    2    0    0 -0.46416903231E+02 -0.60986417184E+01 -0.83462936141E+02  0.12500000000E+03  0.80419002446E+02 0. -1.
</event>
<event>
 4    1  0.1590495E-001  0.1250000E+03  0.7546771E-02  0.1126479E+00
        -11   -1    0    0    0    0  0.00000000000E+00  0.00000000000E+00  0.12500000000E+03  0.12500000000E+03  0.00000000000E+00 0.  1.
         11   -1    0    0    0    0 -0.00000000000E+00 -0.00000000000E+00 -0.12500000000E+03  0.12500000000E+03  0.00000000000E+00 0. -1.
         24    1    1    2    0    0  0.50975603823E+02  0.14284042279E+01  0.80976734448E+02  0.12500000000E+03  0.80419002446E+02 0.  1.
        -24    1    1    2    0    0 -0.50975603823E+02 -0.14284042279E+01 -0.80976734448E+02  0.12500000000E+03  0.80419002446E+02 0. -1.
</event>
<event>
 4    1  0.1590495E-001  0.1250000E+03  0.7546771E-02  0.1126479E+00
        -11   -1    0    0    0    0  0.00000000000E+00  0.00000000000E+00  0.12500000000E+03  0.12500000000E+03  0.00000000000E+00 0.  1.
         11   -1    0    0    0    0 -0.00000000000E+00 -0.00000000000E+00 -0.12500000000E+03  0.12500000000E+03  0.00000000000E+00 0. -1.
         24    1    1    2    0    0  0.15649066413E+00  0.20013423633E+02  0.93580032223E+02  0.12500000000E+03  0.80419002446E+02 0.  0.
        -24    1    1    2    0    0 -0.15649066413E+00 -0.20013423633E+02 -0.93580032223E+02  0.12500000000E+03  0.80419002446E+02 0. -1.
</event>
<event>
 4    1  0.1590495E-001  0.1250000E+03  0.7546771E-02  0.1126479E+00
        -11   -1    0    0    0    0  0.00000000000E+00  0.00000000000E+00  0.12500000000E+03  0.12500000000E+03  0.00000000000E+00 0.  1.
         11   -1    0    0    0    0 -0.00000000000E+00 -0.00000000000E+00 -0.12500000000E+03  0.12500000000E+03  0.00000000000E+00 0. -1.
         24    1    1    2    0    0 -0.38535436663E+02  0.77723249402E+02  0.40396790333E+02  0.12500000000E+03  0.80419002446E+02 0.  1.
        -24    1    1    2    0    0  0.38535436663E+02 -0.77723249402E+02 -0.40396790333E+02  0.12500000000E+03  0.80419002446E+02 0. -1.
</event>
<event>
 4    1  0.1590495E-001  0.1250000E+03  0.7546771E-02  0.1126479E+00
        -11   -1    0    0    0    0  0.00000000000E+00  0.00000000000E+00  0.12500000000E+03  0.12500000000E+03  0.00000000000E+00 0.  1.
         11   -1    0    0    0    0 -0.00000000000E+00 -0.00000000000E+00 -0.12500000000E+03  0.12500000000E+03  0.00000000000E+00 0. -1.
         24    1    1    2    0    0  0.82626401157E+02  0.15040358500E+02  0.45874279217E+02  0.12500000000E+03  0.80419002446E+02 0.  1.
        -24    1    1    2    0    0 -0.82626401157E+02 -0.15040358500E+02 -0.45874279217E+02  0.12500000000E+03  0.80419002446E+02 0. -1.
</event>
<event>
 4    1  0.1590495E-001  0.1250000E+03  0.7546771E-02  0.1126479E+00
        -11   -1    0    0    0    0  0.00000000000E+00  0.00000000000E+00  0.12500000000E+03  0.12500000000E+03  0.00000000000E+00 0.  1.
         11   -1    0    0    0    0 -0.00000000000E+00 -0.00000000000E+00 -0.12500000000E+03  0.12500000000E+03  0.00000000000E+00 0. -1.
         24    1    1    2    0    0 -0.25114309743E+02 -0.59623767507E+02  0.70512848758E+02  0.12500000000E+03  0.80419002446E+02 0.  1.
        -24    1    1    2    0    0  0.25114309743E+02  0.59623767507E+02 -0.70512848758E+02  0.12500000000E+03  0.80419002446E+02 0. -1.
</event>
<event>
 4    1  0.1590495E-001  0.1250000E+03  0.7546771E-02  0.1126479E+00
        -11   -1    0    0    0    0  0.00000000000E+00  0.00000000000E+00  0.12500000000E+03  0.12500000000E+03  0.00000000000E+00 0.  1.
         11   -1    0    0    0    0 -0.00000000000E+00 -0.00000000000E+00 -0.12500000000E+03  0.12500000000E+03  0.00000000000E+00 0. -1.
         24    1    1    2    0    0  0.23074197853E+02 -0.51756422944E+02  0.77114448212E+02  0.12500000000E+03  0.80419002446E+02 0.  1.
        -24    1    1    2    0    0 -0.23074197853E+02  0.51756422944E+02 -0.77114448212E+02  0.12500000000E+03  0.80419002446E+02 0. -1.
</event>
<event>
 4    1  0.1590495E-001  0.1250000E+03  0.7546771E-02  0.1126479E+00
        -11   -1    0    0    0    0  0.00000000000E+00  0.00000000000E+00  0.12500000000E+03  0.12500000000E+03  0.00000000000E+00 0.  1.
         11   -1    0    0    0    0 -0.00000000000E+00 -0.00000000000E+00 -0.12500000000E+03  0.12500000000E+03  0.00000000000E+00 0. -1.
         24    1    1    2    0    0  0.16241899750E+02 -0.45445657046E+02  0.82635809392E+02  0.12500000000E+03  0.80419002446E+02 0.  1.
        -24    1    1    2    0    0 -0.16241899750E+02  0.45445657046E+02 -0.82635809392E+02  0.12500000000E+03  0.80419002446E+02 0. -1.
</event>
<event>
 4    1  0.1590495E-001  0.1250000E+03  0.7546771E-02  0.1126479E+00
        -11   -1    0    0    0    0  0.00000000000E+00  0.00000000000E+00  0.12500000000E+03  0.12500000000E+03  0.00000000000E+00 0.  1.
         11   -1    0    0    0    0 -0.00000000000E+00 -0.00000000000E+00 -0.12500000000E+03  0.12500000000E+03  0.00000000000E+00 0. -1.
         24    1    1    2    0    0  0.25633452837E+02  0.42178130077E+02  0.81986068844E+02  0.12500000000E+03  0.80419002446E+02 0.  1.
        -24    1    1    2    0    0 -0.25633452837E+02 -0.42178130077E+02 -0.81986068844E+02  0.12500000000E+03  0.80419002446E+02 0. -1.
</event>
<event>
 4    1  0.1590495E-001  0.1250000E+03  0.7546771E-02  0.1126479E+00
        -11   -1    0    0    0    0  0.00000000000E+00  0.00000000000E+00  0.12500000000E+03  0.12500000000E+03  0.00000000000E+00 0.  1.
         11   -1    0    0    0    0 -0.00000000000E+00 -0.00000000000E+00 -0.12500000000E+03  0.12500000000E+03  0.00000000000E+00 0. -1.
         24    1    1    2    0    0 -0.27978570672E+02  0.33973159844E+01  0.91451855492E+02  0.12500000000E+03  0.80419002446E+02 0.  0.
        -24    1    1    2    0    0  0.27978570672E+02 -0.33973159844E+01 -0.91451855492E+02  0.12500000000E+03  0.80419002446E+02 0.  0.
</event>
<event>
 4    1  0.1590495E-001  0.1250000E+03  0.7546771E-02  0.1126479E+00
        -11   -1    0    0    0    0  0.00000000000E+00  0.00000000000E+00  0.12500000000E+03  0.12500000000E+03  0.00000000000E+00 0.  1.
         11   -1    0    0    0    0 -0.00000000000E+00 -0.00000000000E+00 -0.12500000000E+03  0.12500000000E+03  0.00000000000E+00 0. -1.
         24    1    1    2    0    0  0.19516690440E+02  0.73004148839E+01  0.93400143375E+02  0.12500000000E+03  0.80419002446E+02 0.  1.
        -24    1    1    2    0    0 -0.19516690440E+02 -0.73004148839E+01 -0.93400143375E+02  0.12500000000E+03  0.80419002446E+02 0. -1.
</event>
<event>
 4    1  0.1590495E-001  0.1250000E+03  0.7546771E-02  0.1126479E+00
        -11   -1    0    0    0    0  0.00000000000E+00  0.00000000000E+00  0.12500000000E+03  0.12500000000E+03  0.00000000000E+00 0.  1.
         11   -1    0    0    0    0 -0.00000000000E+00 -0.00000000000E+00 -0.12500000000E+03  0.12500000000E+03  0.00000000000E+00 0. -1.
         24    1    1    2    0    0 -0.92422472630E+01 -0.58375961894E+02  0.75263616603E+02  0.12500000000E+03  0.80419002446E+02 0.  1.
        -24    1    1    2    0    0  0.92422472630E+01  0.58375961894E+02 -0.75263616603E+02  0.12500000000E+03  0.80419002446E+02 0. -1.
</event>
<event>
 4    1  0.1590495E-001  0.1250000E+03  0.7546771E-02  0.1126479E+00
        -11   -1    0    0    0    0  0.00000000000E+00  0.00000000000E+00  0.12500000000E+03  0.12500000000E+03  0.00000000000E+00 0.  1.
         11   -1    0    0    0    0 -0.00000000000E+00 -0.00000000000E+00 -0.12500000000E+03  0.12500000000E+03  0.00000000000E+00 0. -1.
         24    1    1    2    0    0  0.38546364363E+02  0.35346976574E+02  0.80140832832E+02  0.12500000000E+03  0.80419002446E+02 0.  1.
        -24    1    1    2    0    0 -0.38546364363E+02 -0.35346976574E+02 -0.80140832832E+02  0.12500000000E+03  0.80419002446E+02 0. -1.
</event>
<event>
 4    1  0.1590495E-001  0.1250000E+03  0.7546771E-02  0.1126479E+00
        -11   -1    0    0    0    0  0.00000000000E+00  0.00000000000E+00  0.12500000000E+03  0.12500000000E+03  0.00000000000E+00 0.  1.
         11   -1    0    0    0    0 -0.00000000000E+00 -0.00000000000E+00 -0.12500000000E+03  0.12500000000E+03  0.00000000000E+00 0. -1.
         24    1    1    2    0    0 -0.14771480614E+02  0.94065466956E+02  0.95538124516E+01  0.12500000000E+03  0.80419002446E+02 0.  1.
        -24    1    1    2    0    0  0.14771480614E+02 -0.94065466956E+02 -0.95538124516E+01  0.12500000000E+03  0.80419002446E+02 0.  0.
</event>
<event>
 4    1  0.1590495E-001  0.1250000E+03  0.7546771E-02  0.1126479E+00
        -11   -1    0    0    0    0  0.00000000000E+00  0.00000000000E+00  0.12500000000E+03  0.12500000000E+03  0.00000000000E+00 0.  1.
         11   -1    0    0    0    0 -0.00000000000E+00 -0.00000000000E+00 -0.12500000000E+03  0.12500000000E+03  0.00000000000E+00 0. -1.
         24    1    1    2    0    0  0.48810432489E+02 -0.66650038478E+01  0.82042083406E+02  0.12500000000E+03  0.80419002446E+02 0.  1.
        -24    1    1    2    0    0 -0.48810432489E+02  0.66650038478E+01 -0.82042083406E+02  0.12500000000E+03  0.80419002446E+02 0. -1.
</event>
<event>
 4    1  0.1590495E-001  0.1250000E+03  0.7546771E-02  0.1126479E+00
        -11   -1    0    0    0    0  0.00000000000E+00  0.00000000000E+00  0.12500000000E+03  0.12500000000E+03  0.00000000000E+00 0.  1.
         11   -1    0    0    0    0 -0.00000000000E+00 -0.00000000000E+00 -0.12500000000E+03  0.12500000000E+03  0.00000000000E+00 0. -1.
         24    1    1    2    0    0  0.88729814205E+02  0.22145292257E+02  0.28184927668E+02  0.12500000000E+03  0.80419002446E+02 0.  0.
        -24    1    1    2    0    0 -0.88729814205E+02 -0.22145292257E+02 -0.28184927668E+02  0.12500000000E+03  0.80419002446E+02 0. -1.
</event>
<event>
 4    1  0.1590495E-001  0.1250000E+03  0.7546771E-02  0.1126479E+00
        -11   -1    0    0    0    0  0.00000000000E+00  0.00000000000E+00  0.12500000000E+03  0.12500000000E+03  0.00000000000E+00 0.  1.
         11   -1    0    0    0    0 -0.00000000000E+00 -0.00000000000E+00 -0.12500000000E+03  0.12500000000E+03  0.00000000000E+00 0. -1.
         24    1    1    2    0    0 -0.16059719384E+02  0.60962839221E+01  0.94141939545E+02  0.12500000000E+03  0.80419002446E+02 0.  1.
        -24    1    1    2    0    0  0.16059719384E+02 -0.60962839221E+01 -0.94141939545E+02  0.12500000000E+03  0.80419002446E+02 0. -1.
</event>
<event>
 4    1  0.1590495E-001  0.1250000E+03  0.7546771E-02  0.1126479E+00
        -11   -1    0    0    0    0  0.00000000000E+00  0.00000000000E+00  0.12500000000E+03  0.12500000000E+03  0.00000000000E+00 0.  1.
         11   -1    0    0    0    0 -0.00000000000E+00 -0.00000000000E+00 -0.12500000000E+03  0.12500000000E+03  0.00000000000E+00 0. -1.
         24    1    1    2    0    0 -0.12180856572E+02 -0.74601842399E+02  0.58685397583E+02  0.12500000000E+03  0.80419002446E+02 0.  1.
        -24    1    1    2    0    0  0.12180856572E+02  0.74601842399E+02 -0.58685397583E+02  0.12500000000E+03  0.80419002446E+02 0. -1.
</event>
<event>
 4    1  0.1590495E-001  0.1250000E+03  0.7546771E-02  0.1126479E+00
        -11   -1    0    0    0    0  0.00000000000E+00  0.00000000000E+00  0.12500000000E+03  0.12500000000E+03  0.00000000000E+00 0.  1.
         11   -1    0    0    0    0 -0.00000000000E+00 -0.00000000000E+00 -0.12500000000E+03  0.12500000000E+03  0.00000000000E+00 0. -1.
         24    1    1    2    0    0  0.75968221750E+02  0.36943638947E+02  0.44964217675E+02  0.12500000000E+03  0.80419002446E+02 0.  0.
        -24    1    1    2    0    0 -0.75968221750E+02 -0.36943638947E+02 -0.44964217675E+02  0.12500000000E+03  0.80419002446E+02 0. -1.
</event>
<event>
 4    1  0.1590495E-001  0.1250000E+03  0.7546771E-02  0.1126479E+00
        -11   -1    0    0    0    0  0.00000000000E+00  0.00000000000E+00  0.12500000000E+03  0.12500000000E+03  0.00000000000E+00 0. -1.
         11   -1    0    0    0    0 -0.00000000000E+00 -0.00000000000E+00 -0.12500000000E+03  0.12500000000E+03  0.00000000000E+00 0.  1.
         24    1    1    2    0    0  0.36687565463E+02 -0.81633009622E+02 -0.33880057941E+02  0.12500000000E+03  0.80419002446E+02 0.  1.
        -24    1    1    2    0    0 -0.36687565463E+02  0.81633009622E+02  0.33880057941E+02  0.12500000000E+03  0.80419002446E+02 0.  0.
</event>
<event>
 4    1  0.1590495E-001  0.1250000E+03  0.7546771E-02  0.1126479E+00
        -11   -1    0    0    0    0  0.00000000000E+00  0.00000000000E+00  0.12500000000E+03  0.12500000000E+03  0.00000000000E+00 0.  1.
         11   -1    0    0    0    0 -0.00000000000E+00 -0.00000000000E+00 -0.12500000000E+03  0.12500000000E+03  0.00000000000E+00 0. -1.
         24    1    1    2    0    0 -0.39756695179E+02 -0.86990331848E+02 -0.31418782583E+01  0.12500000000E+03  0.80419002446E+02 0. -1.
        -24    1    1    2    0    0  0.39756695179E+02  0.86990331848E+02  0.31418782583E+01  0.12500000000E+03  0.80419002446E+02 0.  1.
</event>
<event>
 4    1  0.1590495E-001  0.1250000E+03  0.7546771E-02  0.1126479E+00
        -11   -1    0    0    0    0  0.00000000000E+00  0.00000000000E+00  0.12500000000E+03  0.12500000000E+03  0.00000000000E+00 0.  1.
         11   -1    0    0    0    0 -0.00000000000E+00 -0.00000000000E+00 -0.12500000000E+03  0.12500000000E+03  0.00000000000E+00 0. -1.
         24    1    1    2    0    0 -0.37560214263E+02 -0.45607972722E+02  0.75278995572E+02  0.12500000000E+03  0.80419002446E+02 0.  1.
        -24    1    1    2    0    0  0.37560214263E+02  0.45607972722E+02 -0.75278995572E+02  0.12500000000E+03  0.80419002446E+02 0. -1.
</event>
<event>
 4    1  0.1590495E-001  0.1250000E+03  0.7546771E-02  0.1126479E+00
        -11   -1    0    0    0    0  0.00000000000E+00  0.00000000000E+00  0.12500000000E+03  0.12500000000E+03  0.00000000000E+00 0.  1.
         11   -1    0    0    0    0 -0.00000000000E+00 -0.00000000000E+00 -0.12500000000E+03  0.12500000000E+03  0.00000000000E+00 0. -1.
         24    1    1    2    0    0 -0.18885957642E+02 -0.59972670681E+02  0.72141412663E+02  0.12500000000E+03  0.80419002446E+02 0.  1.
        -24    1    1    2    0    0  0.18885957642E+02  0.59972670681E+02 -0.72141412663E+02  0.12500000000E+03  0.80419002446E+02 0. -1.
</event>
<event>
 4    1  0.1590495E-001  0.1250000E+03  0.7546771E-02  0.1126479E+00
        -11   -1    0    0    0    0  0.00000000000E+00  0.00000000000E+00  0.12500000000E+03  0.12500000000E+03  0.00000000000E+00 0.  1.
         11   -1    0    0    0    0 -0.00000000000E+00 -0.00000000000E+00 -0.12500000000E+03  0.12500000000E+03  0.00000000000E+00 0. -1.
         24    1    1    2    0    0  0.71537387694E+01  0.20887847051E+02  0.93114477461E+02  0.12500000000E+03  0.80419002446E+02 0.  1.
        -24    1    1    2    0    0 -0.71537387694E+01 -0.20887847051E+02 -0.93114477461E+02  0.12500000000E+03  0.80419002446E+02 0. -1.
</event>
<event>
 4    1  0.1590495E-001  0.1250000E+03  0.7546771E-02  0.1126479E+00
        -11   -1    0    0    0    0  0.00000000000E+00  0.00000000000E+00  0.12500000000E+03  0.12500000000E+03  0.00000000000E+00 0.  1.
         11   -1    0    0    0    0 -0.00000000000E+00 -0.00000000000E+00 -0.12500000000E+03  0.12500000000E+03  0.00000000000E+00 0. -1.
         24    1    1    2    0    0  0.20471225400E+02  0.39380864314E+02  0.84781250888E+02  0.12500000000E+03  0.80419002446E+02 0.  1.
        -24    1    1    2    0    0 -0.20471225400E+02 -0.39380864314E+02 -0.84781250888E+02  0.12500000000E+03  0.80419002446E+02 0. -1.
</event>
<event>
 4    1  0.1590495E-001  0.1250000E+03  0.7546771E-02  0.1126479E+00
        -11   -1    0    0    0    0  0.00000000000E+00  0.00000000000E+00  0.12500000000E+03  0.12500000000E+03  0.00000000000E+00 0.  1.
         11   -1    0    0    0    0 -0.00000000000E+00 -0.00000000000E+00 -0.12500000000E+03  0.12500000000E+03  0.00000000000E+00 0. -1.
         24    1    1    2    0    0 -0.11384230902E+02  0.42756064170E+00  0.95015790921E+02  0.12500000000E+03  0.80419002446E+02 0.  1.
        -24    1    1    2    0    0  0.11384230902E+02 -0.42756064170E+00 -0.95015790921E+02  0.12500000000E+03  0.80419002446E+02 0. -1.
</event>
<event>
 4    1  0.1590495E-001  0.1250000E+03  0.7546771E-02  0.1126479E+00
        -11   -1    0    0    0    0  0.00000000000E+00  0.00000000000E+00  0.12500000000E+03  0.12500000000E+03  0.00000000000E+00 0.  1.
         11   -1    0    0    0    0 -0.00000000000E+00 -0.00000000000E+00 -0.12500000000E+03  0.12500000000E+03  0.00000000000E+00 0. -1.
         24    1    1    2    0    0  0.44574907927E+02  0.20329197259E+02  0.82204533742E+02  0.12500000000E+03  0.80419002446E+02 0.  1.
        -24    1    1    2    0    0 -0.44574907927E+02 -0.20329197259E+02 -0.82204533742E+02  0.12500000000E+03  0.80419002446E+02 0. -1.
</event>
<event>
 4    1  0.1590495E-001  0.1250000E+03  0.7546771E-02  0.1126479E+00
        -11   -1    0    0    0    0  0.00000000000E+00  0.00000000000E+00  0.12500000000E+03  0.12500000000E+03  0.00000000000E+00 0.  1.
         11   -1    0    0    0    0 -0.00000000000E+00 -0.00000000000E+00 -0.12500000000E+03  0.12500000000E+03  0.00000000000E+00 0. -1.
         24    1    1    2    0    0  0.16090837714E+02 -0.21670180305E+02  0.91811068357E+02  0.12500000000E+03  0.80419002446E+02 0.  1.
        -24    1    1    2    0    0 -0.16090837714E+02  0.21670180305E+02 -0.91811068357E+02  0.12500000000E+03  0.80419002446E+02 0. -1.
</event>
<event>
 4    1  0.1590495E-001  0.1250000E+03  0.7546771E-02  0.1126479E+00
        -11   -1    0    0    0    0  0.00000000000E+00  0.00000000000E+00  0.12500000000E+03  0.12500000000E+03  0.00000000000E+00 0.  1.
         11   -1    0    0    0    0 -0.00000000000E+00 -0.00000000000E+00 -0.12500000000E+03  0.12500000000E+03  0.00000000000E+00 0. -1.
         24    1    1    2    0    0  0.11893206019E+02 -0.31722618134E+02  0.89498665884E+02  0.12500000000E+03  0.80419002446E+02 0.  0.
        -24    1    1    2    0    0 -0.11893206019E+02  0.31722618134E+02 -0.89498665884E+02  0.12500000000E+03  0.80419002446E+02 0.  0.
</event>
<event>
 4    1  0.1590495E-001  0.1250000E+03  0.7546771E-02  0.1126479E+00
        -11   -1    0    0    0    0  0.00000000000E+00  0.00000000000E+00  0.12500000000E+03  0.12500000000E+03  0.00000000000E+00 0.  1.
         11   -1    0    0    0    0 -0.00000000000E+00 -0.00000000000E+00 -0.12500000000E+03  0.12500000000E+03  0.00000000000E+00 0. -1.
         24    1    1    2    0    0 -0.21285525640E+02  0.33930572389E+01  0.93237318743E+02  0.12500000000E+03  0.80419002446E+02 0.  1.
        -24    1    1    2    0    0  0.21285525640E+02 -0.33930572389E+01 -0.93237318743E+02  0.12500000000E+03  0.80419002446E+02 0. -1.
</event>
<event>
 4    1  0.1590495E-001  0.1250000E+03  0.7546771E-02  0.1126479E+00
        -11   -1    0    0    0    0  0.00000000000E+00  0.00000000000E+00  0.12500000000E+03  0.12500000000E+03  0.00000000000E+00 0.  1.
         11   -1    0    0    0    0 -0.00000000000E+00 -0.00000000000E+00 -0.12500000000E+03  0.12500000000E+03  0.00000000000E+00 0. -1.
         24    1    1    2    0    0  0.37497467595E+02  0.71766206839E+02 -0.51003289360E+02  0.12500000000E+03  0.80419002446E+02 0. -1.
        -24    1    1    2    0    0 -0.37497467595E+02 -0.71766206839E+02  0.51003289360E+02  0.12500000000E+03  0.80419002446E+02 0.  1.
</event>
<event>
 4    1  0.1590495E-001  0.1250000E+03  0.7546771E-02  0.1126479E+00
        -11   -1    0    0    0    0  0.00000000000E+00  0.00000000000E+00  0.12500000000E+03  0.12500000000E+03  0.00000000000E+00 0.  1.
         11   -1    0    0    0    0 -0.00000000000E+00 -0.00000000000E+00 -0.12500000000E+03  0.12500000000E+03  0.00000000000E+00 0. -1.
         24    1    1    2    0    0  0.29910927338E+02 -0.68250643903E+02  0.60041403034E+02  0.12500000000E+03  0.80419002446E+02 0.  1.
        -24    1    1    2    0    0 -0.29910927338E+02  0.68250643903E+02 -0.60041403034E+02  0.12500000000E+03  0.80419002446E+02 0. -1.
</event>
<event>
 4    1  0.1590495E-001  0.1250000E+03  0.7546771E-02  0.1126479E+00
        -11   -1    0    0    0    0  0.00000000000E+00  0.00000000000E+00  0.12500000000E+03  0.12500000000E+03  0.00000000000E+00 0.  1.
         11   -1    0    0    0    0 -0.00000000000E+00 -0.00000000000E+00 -0.12500000000E+03  0.12500000000E+03  0.00000000000E+00 0. -1.
         24    1    1    2    0    0 -0.17018795409E+02 -0.86912418635E+02  0.36254325749E+02  0.12500000000E+03  0.80419002446E+02 0. -1.
        -24    1    1    2    0    0  0.17018795409E+02  0.86912418635E+02 -0.36254325749E+02  0.12500000000E+03  0.80419002446E+02 0.  1.
</event>
<event>
 4    1  0.1590495E-001  0.1250000E+03  0.7546771E-02  0.1126479E+00
        -11   -1    0    0    0    0  0.00000000000E+00  0.00000000000E+00  0.12500000000E+03  0.12500000000E+03  0.00000000000E+00 0.  1.
         11   -1    0    0    0    0 -0.00000000000E+00 -0.00000000000E+00 -0.12500000000E+03  0.12500000000E+03  0.00000000000E+00 0. -1.
         24    1    1    2    0    0  0.41270341660E+02  0.61730451056E+01 -0.86118734658E+02  0.12500000000E+03  0.80419002446E+02 0. -1.
        -24    1    1    2    0    0 -0.41270341660E+02 -0.61730451056E+01  0.86118734658E+02  0.12500000000E+03  0.80419002446E+02 0.  1.
</event>
<event>
 4    1  0.1590495E-001  0.1250000E+03  0.7546771E-02  0.1126479E+00
        -11   -1    0    0    0    0  0.00000000000E+00  0.00000000000E+00  0.12500000000E+03  0.12500000000E+03  0.00000000000E+00 0.  1.
         11   -1    0    0    0    0 -0.00000000000E+00 -0.00000000000E+00 -0.12500000000E+03  0.12500000000E+03  0.00000000000E+00 0. -1.
         24    1    1    2    0    0 -0.58001882806E+02 -0.65769952222E+02  0.38312909329E+02  0.12500000000E+03  0.80419002446E+02 0.  1.
        -24    1    1    2    0    0  0.58001882806E+02  0.65769952222E+02 -0.38312909329E+02  0.12500000000E+03  0.80419002446E+02 0.  0.
</event>
<event>
 4    1  0.1590495E-001  0.1250000E+03  0.7546771E-02  0.1126479E+00
        -11   -1    0    0    0    0  0.00000000000E+00  0.00000000000E+00  0.12500000000E+03  0.12500000000E+03  0.00000000000E+00 0.  1.
         11   -1    0    0    0    0 -0.00000000000E+00 -0.00000000000E+00 -0.12500000000E+03  0.12500000000E+03  0.00000000000E+00 0. -1.
         24    1    1    2    0    0  0.50306854935E+01  0.13305213580E+02  0.94633226410E+02  0.12500000000E+03  0.80419002446E+02 0.  0.
        -24    1    1    2    0    0 -0.50306854935E+01 -0.13305213580E+02 -0.94633226410E+02  0.12500000000E+03  0.80419002446E+02 0.  0.
</event>
<event>
 4    1  0.1590495E-001  0.1250000E+03  0.7546771E-02  0.1126479E+00
        -11   -1    0    0    0    0  0.00000000000E+00  0.00000000000E+00  0.12500000000E+03  0.12500000000E+03  0.00000000000E+00 0.  1.
         11   -1    0    0    0    0 -0.00000000000E+00 -0.00000000000E+00 -0.12500000000E+03  0.12500000000E+03  0.00000000000E+00 0. -1.
         24    1    1    2    0    0 -0.87093997220E+02  0.24875210902E+02 -0.30881120064E+02  0.12500000000E+03  0.80419002446E+02 0.  0.
        -24    1    1    2    0    0  0.87093997220E+02 -0.24875210902E+02  0.30881120064E+02  0.12500000000E+03  0.80419002446E+02 0. -1.
</event>
<event>
 4    1  0.1590495E-001  0.1250000E+03  0.7546771E-02  0.1126479E+00
        -11   -1    0    0    0    0  0.00000000000E+00  0.00000000000E+00  0.12500000000E+03  0.12500000000E+03  0.00000000000E+00 0.  1.
         11   -1    0    0    0    0 -0.00000000000E+00 -0.00000000000E+00 -0.12500000000E+03  0.12500000000E+03  0.00000000000E+00 0. -1.
         24    1    1    2    0    0  0.30422523992E+02  0.15237022178E+01  0.90718974923E+02  0.12500000000E+03  0.80419002446E+02 0.  1.
        -24    1    1    2    0    0 -0.30422523992E+02 -0.15237022178E+01 -0.90718974923E+02  0.12500000000E+03  0.80419002446E+02 0.  0.
</event>
<event>
 4    1  0.1590495E-001  0.1250000E+03  0.7546771E-02  0.1126479E+00
        -11   -1    0    0    0    0  0.00000000000E+00  0.00000000000E+00  0.12500000000E+03  0.12500000000E+03  0.00000000000E+00 0.  1.
         11   -1    0    0    0    0 -0.00000000000E+00 -0.00000000000E+00 -0.12500000000E+03  0.12500000000E+03  0.00000000000E+00 0. -1.
         24    1    1    2    0    0 -0.38090132041E+02 -0.57025799295E+02  0.66745667287E+02  0.12500000000E+03  0.80419002446E+02 0.  0.
        -24    1    1    2    0    0  0.38090132041E+02  0.57025799295E+02 -0.66745667287E+02  0.12500000000E+03  0.80419002446E+02 0.  1.
</event>
<event>
 4    1  0.1590495E-001  0.1250000E+03  0.7546771E-02  0.1126479E+00
        -11   -1    0    0    0    0  0.00000000000E+00  0.00000000000E+00  0.12500000000E+03  0.12500000000E+03  0.00000000000E+00 0.  1.
         11   -1    0    0    0    0 -0.00000000000E+00 -0.00000000000E+00 -0.12500000000E+03  0.12500000000E+03  0.00000000000E+00 0. -1.
         24    1    1    2    0    0 -0.81809492494E+02 -0.48509489850E+02 -0.10574515493E+02  0.12500000000E+03  0.80419002446E+02 0.  0.
        -24    1    1    2    0    0  0.81809492494E+02  0.48509489850E+02  0.10574515493E+02  0.12500000000E+03  0.80419002446E+02 0.  0.
</event>
<event>
 4    1  0.1590495E-001  0.1250000E+03  0.7546771E-02  0.1126479E+00
        -11   -1    0    0    0    0  0.00000000000E+00  0.00000000000E+00  0.12500000000E+03  0.12500000000E+03  0.00000000000E+00 0.  1.
         11   -1    0    0    0    0 -0.00000000000E+00 -0.00000000000E+00 -0.12500000000E+03  0.12500000000E+03  0.00000000000E+00 0. -1.
         24    1    1    2    0    0 -0.13217558369E+02  0.84713191092E+02 -0.42505946072E+02  0.12500000000E+03  0.80419002446E+02 0. -1.
        -24    1    1    2    0    0  0.13217558369E+02 -0.84713191092E+02  0.42505946072E+02  0.12500000000E+03  0.80419002446E+02 0.  1.
</event>
<event>
 4    1  0.1590495E-001  0.1250000E+03  0.7546771E-02  0.1126479E+00
        -11   -1    0    0    0    0  0.00000000000E+00  0.00000000000E+00  0.12500000000E+03  0.12500000000E+03  0.00000000000E+00 0.  1.
         11   -1    0    0    0    0 -0.00000000000E+00 -0.00000000000E+00 -0.12500000000E+03  0.12500000000E+03  0.00000000000E+00 0. -1.
         24    1    1    2    0    0 -0.43585294339E+02 -0.31053437451E+02  0.79333411533E+02  0.12500000000E+03  0.80419002446E+02 0.  1.
        -24    1    1    2    0    0  0.43585294339E+02  0.31053437451E+02 -0.79333411533E+02  0.12500000000E+03  0.80419002446E+02 0. -1.
</event>
<event>
 4    1  0.1590495E-001  0.1250000E+03  0.7546771E-02  0.1126479E+00
        -11   -1    0    0    0    0  0.00000000000E+00  0.00000000000E+00  0.12500000000E+03  0.12500000000E+03  0.00000000000E+00 0.  1.
         11   -1    0    0    0    0 -0.00000000000E+00 -0.00000000000E+00 -0.12500000000E+03  0.12500000000E+03  0.00000000000E+00 0. -1.
         24    1    1    2    0    0  0.34478465532E+01  0.40763394596E+02  0.86511514036E+02  0.12500000000E+03  0.80419002446E+02 0.  1.
        -24    1    1    2    0    0 -0.34478465532E+01 -0.40763394596E+02 -0.86511514036E+02  0.12500000000E+03  0.80419002446E+02 0. -1.
</event>
<event>
 4    1  0.1590495E-001  0.1250000E+03  0.7546771E-02  0.1126479E+00
        -11   -1    0    0    0    0  0.00000000000E+00  0.00000000000E+00  0.12500000000E+03  0.12500000000E+03  0.00000000000E+00 0.  1.
         11   -1    0    0    0    0 -0.00000000000E+00 -0.00000000000E+00 -0.12500000000E+03  0.12500000000E+03  0.00000000000E+00 0. -1.
         24    1    1    2    0    0  0.82090413456E+02  0.32413004341E+02 -0.36991150479E+02  0.12500000000E+03  0.80419002446E+02 0. -1.
        -24    1    1    2    0    0 -0.82090413456E+02 -0.32413004341E+02  0.36991150479E+02  0.12500000000E+03  0.80419002446E+02 0.  1.
</event>
<event>
 4    1  0.1590495E-001  0.1250000E+03  0.7546771E-02  0.1126479E+00
        -11   -1    0    0    0    0  0.00000000000E+00  0.00000000000E+00  0.12500000000E+03  0.12500000000E+03  0.00000000000E+00 0.  1.
         11   -1    0    0    0    0 -0.00000000000E+00 -0.00000000000E+00 -0.12500000000E+03  0.12500000000E+03  0.00000000000E+00 0. -1.
         24    1    1    2    0    0  0.33367960624E+02 -0.46373136761E+02  0.76771709870E+02  0.12500000000E+03  0.80419002446E+02 0.  1.
        -24    1    1    2    0    0 -0.33367960624E+02  0.46373136761E+02 -0.76771709870E+02  0.12500000000E+03  0.80419002446E+02 0. -1.
</event>
<event>
 4    1  0.1590495E-001  0.1250000E+03  0.7546771E-02  0.1126479E+00
        -11   -1    0    0    0    0  0.00000000000E+00  0.00000000000E+00  0.12500000000E+03  0.12500000000E+03  0.00000000000E+00 0.  1.
         11   -1    0    0    0    0 -0.00000000000E+00 -0.00000000000E+00 -0.12500000000E+03  0.12500000000E+03  0.00000000000E+00 0. -1.
         24    1    1    2    0    0  0.59420434767E+02 -0.12446217880E+02  0.73973560399E+02  0.12500000000E+03  0.80419002446E+02 0.  1.
        -24    1    1    2    0    0 -0.59420434767E+02  0.12446217880E+02 -0.73973560399E+02  0.12500000000E+03  0.80419002446E+02 0.  0.
</event>
<event>
 4    1  0.1590495E-001  0.1250000E+03  0.7546771E-02  0.1126479E+00
        -11   -1    0    0    0    0  0.00000000000E+00  0.00000000000E+00  0.12500000000E+03  0.12500000000E+03  0.00000000000E+00 0.  1.
         11   -1    0    0    0    0 -0.00000000000E+00 -0.00000000000E+00 -0.12500000000E+03  0.12500000000E+03  0.00000000000E+00 0. -1.
         24    1    1    2    0    0 -0.60442499819E+01 -0.22496661703E+02  0.92817839341E+02  0.12500000000E+03  0.80419002446E+02 0.  1.
        -24    1    1    2    0    0  0.60442499819E+01  0.22496661703E+02 -0.92817839341E+02  0.12500000000E+03  0.80419002446E+02 0. -1.
</event>
<event>
 4    1  0.1590495E-001  0.1250000E+03  0.7546771E-02  0.1126479E+00
        -11   -1    0    0    0    0  0.00000000000E+00  0.00000000000E+00  0.12500000000E+03  0.12500000000E+03  0.00000000000E+00 0.  1.
         11   -1    0    0    0    0 -0.00000000000E+00 -0.00000000000E+00 -0.12500000000E+03  0.12500000000E+03  0.00000000000E+00 0. -1.
         24    1    1    2    0    0 -0.26959850641E+02 -0.61021874940E+02  0.68609629630E+02  0.12500000000E+03  0.80419002446E+02 0.  1.
        -24    1    1    2    0    0  0.26959850641E+02  0.61021874940E+02 -0.68609629630E+02  0.12500000000E+03  0.80419002446E+02 0. -1.
</event>
<event>
 4    1  0.1590495E-001  0.1250000E+03  0.7546771E-02  0.1126479E+00
        -11   -1    0    0    0    0  0.00000000000E+00  0.00000000000E+00  0.12500000000E+03  0.12500000000E+03  0.00000000000E+00 0.  1.
         11   -1    0    0    0    0 -0.00000000000E+00 -0.00000000000E+00 -0.12500000000E+03  0.12500000000E+03  0.00000000000E+00 0. -1.
         24    1    1    2    0    0 -0.13897597398E+01 -0.59181358392E+02  0.75189224177E+02  0.12500000000E+03  0.80419002446E+02 0.  1.
        -24    1    1    2    0    0  0.13897597398E+01  0.59181358392E+02 -0.75189224177E+02  0.12500000000E+03  0.80419002446E+02 0. -1.
</event>
<event>
 4    1  0.1590495E-001  0.1250000E+03  0.7546771E-02  0.1126479E+00
        -11   -1    0    0    0    0  0.00000000000E+00  0.00000000000E+00  0.12500000000E+03  0.12500000000E+03  0.00000000000E+00 0.  1.
         11   -1    0    0    0    0 -0.00000000000E+00 -0.00000000000E+00 -0.12500000000E+03  0.12500000000E+03  0.00000000000E+00 0. -1.
         24    1    1    2    0    0 -0.53289753578E+02 -0.43198136607E+02  0.66722613880E+02  0.12500000000E+03  0.80419002446E+02 0.  1.
        -24    1    1    2    0    0  0.53289753578E+02  0.43198136607E+02 -0.66722613880E+02  0.12500000000E+03  0.80419002446E+02 0. -1.
</event>
<event>
 4    1  0.1590495E-001  0.1250000E+03  0.7546771E-02  0.1126479E+00
        -11   -1    0    0    0    0  0.00000000000E+00  0.00000000000E+00  0.12500000000E+03  0.12500000000E+03  0.00000000000E+00 0.  1.
         11   -1    0    0    0    0 -0.00000000000E+00 -0.00000000000E+00 -0.12500000000E+03  0.12500000000E+03  0.00000000000E+00 0. -1.
         24    1    1    2    0    0 -0.92821706560E+02  0.22798600577E+02  0.47051725387E+01  0.12500000000E+03  0.80419002446E+02 0.  0.
        -24    1    1    2    0    0  0.92821706560E+02 -0.22798600577E+02 -0.47051725387E+01  0.12500000000E+03  0.80419002446E+02 0.  0.
</event>
<event>
 4    1  0.1590495E-001  0.1250000E+03  0.7546771E-02  0.1126479E+00
        -11   -1    0    0    0    0  0.00000000000E+00  0.00000000000E+00  0.12500000000E+03  0.12500000000E+03  0.00000000000E+00 0.  1.
         11   -1    0    0    0    0 -0.00000000000E+00 -0.00000000000E+00 -0.12500000000E+03  0.12500000000E+03  0.00000000000E+00 0. -1.
         24    1    1    2    0    0  0.40995902635E+02  0.59749831721E+02  0.62506620626E+02  0.12500000000E+03  0.80419002446E+02 0.  1.
        -24    1    1    2    0    0 -0.40995902635E+02 -0.59749831721E+02 -0.62506620626E+02  0.12500000000E+03  0.80419002446E+02 0. -1.
</event>
<event>
 4    1  0.1590495E-001  0.1250000E+03  0.7546771E-02  0.1126479E+00
        -11   -1    0    0    0    0  0.00000000000E+00  0.00000000000E+00  0.12500000000E+03  0.12500000000E+03  0.00000000000E+00 0.  1.
         11   -1    0    0    0    0 -0.00000000000E+00 -0.00000000000E+00 -0.12500000000E+03  0.12500000000E+03  0.00000000000E+00 0. -1.
         24    1    1    2    0    0  0.29181682369E+02 -0.17817142781E+02  0.89379879631E+02  0.12500000000E+03  0.80419002446E+02 0.  1.
        -24    1    1    2    0    0 -0.29181682369E+02  0.17817142781E+02 -0.89379879631E+02  0.12500000000E+03  0.80419002446E+02 0. -1.
</event>
<event>
 4    1  0.1590495E-001  0.1250000E+03  0.7546771E-02  0.1126479E+00
        -11   -1    0    0    0    0  0.00000000000E+00  0.00000000000E+00  0.12500000000E+03  0.12500000000E+03  0.00000000000E+00 0.  1.
         11   -1    0    0    0    0 -0.00000000000E+00 -0.00000000000E+00 -0.12500000000E+03  0.12500000000E+03  0.00000000000E+00 0. -1.
         24    1    1    2    0    0  0.71239876018E+02 -0.38747176512E+01  0.63778136330E+02  0.12500000000E+03  0.80419002446E+02 0.  1.
        -24    1    1    2    0    0 -0.71239876018E+02  0.38747176512E+01 -0.63778136330E+02  0.12500000000E+03  0.80419002446E+02 0. -1.
</event>
<event>
 4    1  0.1590495E-001  0.1250000E+03  0.7546771E-02  0.1126479E+00
        -11   -1    0    0    0    0  0.00000000000E+00  0.00000000000E+00  0.12500000000E+03  0.12500000000E+03  0.00000000000E+00 0.  1.
         11   -1    0    0    0    0 -0.00000000000E+00 -0.00000000000E+00 -0.12500000000E+03  0.12500000000E+03  0.00000000000E+00 0. -1.
         24    1    1    2    0    0  0.94153570405E+01 -0.11850477398E+02  0.94491805374E+02  0.12500000000E+03  0.80419002446E+02 0.  1.
        -24    1    1    2    0    0 -0.94153570405E+01  0.11850477398E+02 -0.94491805374E+02  0.12500000000E+03  0.80419002446E+02 0. -1.
</event>
<event>
 4    1  0.1590495E-001  0.1250000E+03  0.7546771E-02  0.1126479E+00
        -11   -1    0    0    0    0  0.00000000000E+00  0.00000000000E+00  0.12500000000E+03  0.12500000000E+03  0.00000000000E+00 0.  1.
         11   -1    0    0    0    0 -0.00000000000E+00 -0.00000000000E+00 -0.12500000000E+03  0.12500000000E+03  0.00000000000E+00 0. -1.
         24    1    1    2    0    0  0.30326981771E+02 -0.10494590886E+02  0.90154987574E+02  0.12500000000E+03  0.80419002446E+02 0.  1.
        -24    1    1    2    0    0 -0.30326981771E+02  0.10494590886E+02 -0.90154987574E+02  0.12500000000E+03  0.80419002446E+02 0. -1.
</event>
<event>
 4    1  0.1590495E-001  0.1250000E+03  0.7546771E-02  0.1126479E+00
        -11   -1    0    0    0    0  0.00000000000E+00  0.00000000000E+00  0.12500000000E+03  0.12500000000E+03  0.00000000000E+00 0.  1.
         11   -1    0    0    0    0 -0.00000000000E+00 -0.00000000000E+00 -0.12500000000E+03  0.12500000000E+03  0.00000000000E+00 0. -1.
         24    1    1    2    0    0  0.50493849097E+02  0.10717313488E+02  0.80580980638E+02  0.12500000000E+03  0.80419002446E+02 0.  1.
        -24    1    1    2    0    0 -0.50493849097E+02 -0.10717313488E+02 -0.80580980638E+02  0.12500000000E+03  0.80419002446E+02 0. -1.
</event>
<event>
 4    1  0.1590495E-001  0.1250000E+03  0.7546771E-02  0.1126479E+00
        -11   -1    0    0    0    0  0.00000000000E+00  0.00000000000E+00  0.12500000000E+03  0.12500000000E+03  0.00000000000E+00 0.  1.
         11   -1    0    0    0    0 -0.00000000000E+00 -0.00000000000E+00 -0.12500000000E+03  0.12500000000E+03  0.00000000000E+00 0. -1.
         24    1    1    2    0    0  0.39202407495E+02 -0.67844427968E+02  0.54937135764E+02  0.12500000000E+03  0.80419002446E+02 0.  1.
        -24    1    1    2    0    0 -0.39202407495E+02  0.67844427968E+02 -0.54937135764E+02  0.12500000000E+03  0.80419002446E+02 0. -1.
</event>
<event>
 4    1  0.1590495E-001  0.1250000E+03  0.7546771E-02  0.1126479E+00
        -11   -1    0    0    0    0  0.00000000000E+00  0.00000000000E+00  0.12500000000E+03  0.12500000000E+03  0.00000000000E+00 0.  1.
         11   -1    0    0    0    0 -0.00000000000E+00 -0.00000000000E+00 -0.12500000000E+03  0.12500000000E+03  0.00000000000E+00 0. -1.
         24    1    1    2    0    0 -0.91996234904E+02  0.26265132520E+02 -0.21493307865E+01  0.12500000000E+03  0.80419002446E+02 0.  0.
        -24    1    1    2    0    0  0.91996234904E+02 -0.26265132520E+02  0.21493307865E+01  0.12500000000E+03  0.80419002446E+02 0. -1.
</event>
<event>
 4    1  0.1590495E-001  0.1250000E+03  0.7546771E-02  0.1126479E+00
        -11   -1    0    0    0    0  0.00000000000E+00  0.00000000000E+00  0.12500000000E+03  0.12500000000E+03  0.00000000000E+00 0.  1.
         11   -1    0    0    0    0 -0.00000000000E+00 -0.00000000000E+00 -0.12500000000E+03  0.12500000000E+03  0.00000000000E+00 0. -1.
         24    1    1    2    0    0 -0.41507501903E+02  0.40421933337E+02  0.76164155853E+02  0.12500000000E+03  0.80419002446E+02 0.  1.
        -24    1    1    2    0    0  0.41507501903E+02 -0.40421933337E+02 -0.76164155853E+02  0.12500000000E+03  0.80419002446E+02 0. -1.
</event>
<event>
 4    1  0.1590495E-001  0.1250000E+03  0.7546771E-02  0.1126479E+00
        -11   -1    0    0    0    0  0.00000000000E+00  0.00000000000E+00  0.12500000000E+03  0.12500000000E+03  0.00000000000E+00 0.  1.
         11   -1    0    0    0    0 -0.00000000000E+00 -0.00000000000E+00 -0.12500000000E+03  0.12500000000E+03  0.00000000000E+00 0. -1.
         24    1    1    2    0    0 -0.63297776871E+01  0.11953276887E+02  0.94735617018E+02  0.12500000000E+03  0.80419002446E+02 0.  0.
        -24    1    1    2    0    0  0.63297776871E+01 -0.11953276887E+02 -0.94735617018E+02  0.12500000000E+03  0.80419002446E+02 0. -1.
</event>
<event>
 4    1  0.1590495E-001  0.1250000E+03  0.7546771E-02  0.1126479E+00
        -11   -1    0    0    0    0  0.00000000000E+00  0.00000000000E+00  0.12500000000E+03  0.12500000000E+03  0.00000000000E+00 0.  1.
         11   -1    0    0    0    0 -0.00000000000E+00 -0.00000000000E+00 -0.12500000000E+03  0.12500000000E+03  0.00000000000E+00 0. -1.
         24    1    1    2    0    0 -0.31195604616E+02 -0.61020861939E+02  0.66791262202E+02  0.12500000000E+03  0.80419002446E+02 0.  0.
        -24    1    1    2    0    0  0.31195604616E+02  0.61020861939E+02 -0.66791262202E+02  0.12500000000E+03  0.80419002446E+02 0. -1.
</event>
<event>
 4    1  0.1590495E-001  0.1250000E+03  0.7546771E-02  0.1126479E+00
        -11   -1    0    0    0    0  0.00000000000E+00  0.00000000000E+00  0.12500000000E+03  0.12500000000E+03  0.00000000000E+00 0.  1.
         11   -1    0    0    0    0 -0.00000000000E+00 -0.00000000000E+00 -0.12500000000E+03  0.12500000000E+03  0.00000000000E+00 0. -1.
         24    1    1    2    0    0  0.65262556250E+02  0.22273005438E+02  0.66351307645E+02  0.12500000000E+03  0.80419002446E+02 0.  1.
        -24    1    1    2    0    0 -0.65262556250E+02 -0.22273005438E+02 -0.66351307645E+02  0.12500000000E+03  0.80419002446E+02 0. -1.
</event>
<event>
 4    1  0.1590495E-001  0.1250000E+03  0.7546771E-02  0.1126479E+00
        -11   -1    0    0    0    0  0.00000000000E+00  0.00000000000E+00  0.12500000000E+03  0.12500000000E+03  0.00000000000E+00 0.  1.
         11   -1    0    0    0    0 -0.00000000000E+00 -0.00000000000E+00 -0.12500000000E+03  0.12500000000E+03  0.00000000000E+00 0. -1.
         24    1    1    2    0    0  0.16565614902E+02 -0.20917853496E+02  0.91901076455E+02  0.12500000000E+03  0.80419002446E+02 0.  1.
        -24    1    1    2    0    0 -0.16565614902E+02  0.20917853496E+02 -0.91901076455E+02  0.12500000000E+03  0.80419002446E+02 0. -1.
</event>
<event>
 4    1  0.1590495E-001  0.1250000E+03  0.7546771E-02  0.1126479E+00
        -11   -1    0    0    0    0  0.00000000000E+00  0.00000000000E+00  0.12500000000E+03  0.12500000000E+03  0.00000000000E+00 0.  1.
         11   -1    0    0    0    0 -0.00000000000E+00 -0.00000000000E+00 -0.12500000000E+03  0.12500000000E+03  0.00000000000E+00 0. -1.
         24    1    1    2    0    0  0.94962680166E+02 -0.87319515266E+01  0.79766185717E+01  0.12500000000E+03  0.80419002446E+02 0.  1.
        -24    1    1    2    0    0 -0.94962680166E+02  0.87319515266E+01 -0.79766185717E+01  0.12500000000E+03  0.80419002446E+02 0. -1.
</event>
<event>
 4    1  0.1590495E-001  0.1250000E+03  0.7546771E-02  0.1126479E+00
        -11   -1    0    0    0    0  0.00000000000E+00  0.00000000000E+00  0.12500000000E+03  0.12500000000E+03  0.00000000000E+00 0.  1.
         11   -1    0    0    0    0 -0.00000000000E+00 -0.00000000000E+00 -0.12500000000E+03  0.12500000000E+03  0.00000000000E+00 0. -1.
         24    1    1    2    0    0 -0.36159857808E+02 -0.23638055566E+01  0.88570091748E+02  0.12500000000E+03  0.80419002446E+02 0.  1.
        -24    1    1    2    0    0  0.36159857808E+02  0.23638055566E+01 -0.88570091748E+02  0.12500000000E+03  0.80419002446E+02 0. -1.
</event>
<event>
 4    1  0.1590495E-001  0.1250000E+03  0.7546771E-02  0.1126479E+00
        -11   -1    0    0    0    0  0.00000000000E+00  0.00000000000E+00  0.12500000000E+03  0.12500000000E+03  0.00000000000E+00 0.  1.
         11   -1    0    0    0    0 -0.00000000000E+00 -0.00000000000E+00 -0.12500000000E+03  0.12500000000E+03  0.00000000000E+00 0. -1.
         24    1    1    2    0    0 -0.29032937449E+02  0.12921827392E+02  0.90265713123E+02  0.12500000000E+03  0.80419002446E+02 0.  1.
        -24    1    1    2    0    0  0.29032937449E+02 -0.12921827392E+02 -0.90265713123E+02  0.12500000000E+03  0.80419002446E+02 0. -1.
</event>
<event>
 4    1  0.1590495E-001  0.1250000E+03  0.7546771E-02  0.1126479E+00
        -11   -1    0    0    0    0  0.00000000000E+00  0.00000000000E+00  0.12500000000E+03  0.12500000000E+03  0.00000000000E+00 0.  1.
         11   -1    0    0    0    0 -0.00000000000E+00 -0.00000000000E+00 -0.12500000000E+03  0.12500000000E+03  0.00000000000E+00 0. -1.
         24    1    1    2    0    0  0.88045813362E+02  0.35593329117E+02  0.11782772057E+02  0.12500000000E+03  0.80419002446E+02 0.  1.
        -24    1    1    2    0    0 -0.88045813362E+02 -0.35593329117E+02 -0.11782772057E+02  0.12500000000E+03  0.80419002446E+02 0. -1.
</event>
<event>
 4    1  0.1590495E-001  0.1250000E+03  0.7546771E-02  0.1126479E+00
        -11   -1    0    0    0    0  0.00000000000E+00  0.00000000000E+00  0.12500000000E+03  0.12500000000E+03  0.00000000000E+00 0.  1.
         11   -1    0    0    0    0 -0.00000000000E+00 -0.00000000000E+00 -0.12500000000E+03  0.12500000000E+03  0.00000000000E+00 0. -1.
         24    1    1    2    0    0  0.56302530858E+02  0.67149386155E+02  0.38454765681E+02  0.12500000000E+03  0.80419002446E+02 0.  1.
        -24    1    1    2    0    0 -0.56302530858E+02 -0.67149386155E+02 -0.38454765681E+02  0.12500000000E+03  0.80419002446E+02 0. -1.
</event>
<event>
 4    1  0.1590495E-001  0.1250000E+03  0.7546771E-02  0.1126479E+00
        -11   -1    0    0    0    0  0.00000000000E+00  0.00000000000E+00  0.12500000000E+03  0.12500000000E+03  0.00000000000E+00 0.  1.
         11   -1    0    0    0    0 -0.00000000000E+00 -0.00000000000E+00 -0.12500000000E+03  0.12500000000E+03  0.00000000000E+00 0. -1.
         24    1    1    2    0    0 -0.18849659631E+02 -0.64008206919E+01  0.93602905254E+02  0.12500000000E+03  0.80419002446E+02 0.  1.
        -24    1    1    2    0    0  0.18849659631E+02  0.64008206919E+01 -0.93602905254E+02  0.12500000000E+03  0.80419002446E+02 0. -1.
</event>
<event>
 4    1  0.1590495E-001  0.1250000E+03  0.7546771E-02  0.1126479E+00
        -11   -1    0    0    0    0  0.00000000000E+00  0.00000000000E+00  0.12500000000E+03  0.12500000000E+03  0.00000000000E+00 0.  1.
         11   -1    0    0    0    0 -0.00000000000E+00 -0.00000000000E+00 -0.12500000000E+03  0.12500000000E+03  0.00000000000E+00 0. -1.
         24    1    1    2    0    0  0.84250412687E+02 -0.24038297161E+02  0.38494314870E+02  0.12500000000E+03  0.80419002446E+02 0.  0.
        -24    1    1    2    0    0 -0.84250412687E+02  0.24038297161E+02 -0.38494314870E+02  0.12500000000E+03  0.80419002446E+02 0. -1.
</event>
<event>
 4    1  0.1590495E-001  0.1250000E+03  0.7546771E-02  0.1126479E+00
        -11   -1    0    0    0    0  0.00000000000E+00  0.00000000000E+00  0.12500000000E+03  0.12500000000E+03  0.00000000000E+00 0.  1.
         11   -1    0    0    0    0 -0.00000000000E+00 -0.00000000000E+00 -0.12500000000E+03  0.12500000000E+03  0.00000000000E+00 0. -1.
         24    1    1    2    0    0 -0.63181442702E+02 -0.49309393020E+02  0.52292189702E+02  0.12500000000E+03  0.80419002446E+02 0.  1.
        -24    1    1    2    0    0  0.63181442702E+02  0.49309393020E+02 -0.52292189702E+02  0.12500000000E+03  0.80419002446E+02 0. -1.
</event>
<event>
 4    1  0.1590495E-001  0.1250000E+03  0.7546771E-02  0.1126479E+00
        -11   -1    0    0    0    0  0.00000000000E+00  0.00000000000E+00  0.12500000000E+03  0.12500000000E+03  0.00000000000E+00 0.  1.
         11   -1    0    0    0    0 -0.00000000000E+00 -0.00000000000E+00 -0.12500000000E+03  0.12500000000E+03  0.00000000000E+00 0. -1.
         24    1    1    2    0    0  0.40731309369E+02 -0.31669391594E+02  0.80596489494E+02  0.12500000000E+03  0.80419002446E+02 0.  1.
        -24    1    1    2    0    0 -0.40731309369E+02  0.31669391594E+02 -0.80596489494E+02  0.12500000000E+03  0.80419002446E+02 0. -1.
</event>
<event>
 4    1  0.1590495E-001  0.1250000E+03  0.7546771E-02  0.1126479E+00
        -11   -1    0    0    0    0  0.00000000000E+00  0.00000000000E+00  0.12500000000E+03  0.12500000000E+03  0.00000000000E+00 0.  1.
         11   -1    0    0    0    0 -0.00000000000E+00 -0.00000000000E+00 -0.12500000000E+03  0.12500000000E+03  0.00000000000E+00 0. -1.
         24    1    1    2    0    0  0.36373400571E+02 -0.51226492704E+02  0.72184528964E+02  0.12500000000E+03  0.80419002446E+02 0.  1.
        -24    1    1    2    0    0 -0.36373400571E+02  0.51226492704E+02 -0.72184528964E+02  0.12500000000E+03  0.80419002446E+02 0. -1.
</event>
<event>
 4    1  0.1590495E-001  0.1250000E+03  0.7546771E-02  0.1126479E+00
        -11   -1    0    0    0    0  0.00000000000E+00  0.00000000000E+00  0.12500000000E+03  0.12500000000E+03  0.00000000000E+00 0.  1.
         11   -1    0    0    0    0 -0.00000000000E+00 -0.00000000000E+00 -0.12500000000E+03  0.12500000000E+03  0.00000000000E+00 0. -1.
         24    1    1    2    0    0  0.88052431619E+02  0.29725883724E+02  0.22823785145E+02  0.12500000000E+03  0.80419002446E+02 0.  1.
        -24    1    1    2    0    0 -0.88052431619E+02 -0.29725883724E+02 -0.22823785145E+02  0.12500000000E+03  0.80419002446E+02 0.  0.
</event>
<event>
 4    1  0.1590495E-001  0.1250000E+03  0.7546771E-02  0.1126479E+00
        -11   -1    0    0    0    0  0.00000000000E+00  0.00000000000E+00  0.12500000000E+03  0.12500000000E+03  0.00000000000E+00 0.  1.
         11   -1    0    0    0    0 -0.00000000000E+00 -0.00000000000E+00 -0.12500000000E+03  0.12500000000E+03  0.00000000000E+00 0. -1.
         24    1    1    2    0    0 -0.44320536204E+01 -0.52047696500E+02  0.80182156590E+02  0.12500000000E+03  0.80419002446E+02 0.  0.
        -24    1    1    2    0    0  0.44320536204E+01  0.52047696500E+02 -0.80182156590E+02  0.12500000000E+03  0.80419002446E+02 0.  1.
</event>
<event>
 4    1  0.1590495E-001  0.1250000E+03  0.7546771E-02  0.1126479E+00
        -11   -1    0    0    0    0  0.00000000000E+00  0.00000000000E+00  0.12500000000E+03  0.12500000000E+03  0.00000000000E+00 0.  1.
         11   -1    0    0    0    0 -0.00000000000E+00 -0.00000000000E+00 -0.12500000000E+03  0.12500000000E+03  0.00000000000E+00 0. -1.
         24    1    1    2    0    0 -0.11180570430E+02  0.20627900068E+02  0.92775366500E+02  0.12500000000E+03  0.80419002446E+02 0.  1.
        -24    1    1    2    0    0  0.11180570430E+02 -0.20627900068E+02 -0.92775366500E+02  0.12500000000E+03  0.80419002446E+02 0.  0.
</event>
<event>
 4    1  0.1590495E-001  0.1250000E+03  0.7546771E-02  0.1126479E+00
        -11   -1    0    0    0    0  0.00000000000E+00  0.00000000000E+00  0.12500000000E+03  0.12500000000E+03  0.00000000000E+00 0.  1.
         11   -1    0    0    0    0 -0.00000000000E+00 -0.00000000000E+00 -0.12500000000E+03  0.12500000000E+03  0.00000000000E+00 0. -1.
         24    1    1    2    0    0 -0.41076465557E+02  0.51048630951E+02  0.69746292381E+02  0.12500000000E+03  0.80419002446E+02 0.  1.
        -24    1    1    2    0    0  0.41076465557E+02 -0.51048630951E+02 -0.69746292381E+02  0.12500000000E+03  0.80419002446E+02 0. -1.
</event>
<event>
 4    1  0.1590495E-001  0.1250000E+03  0.7546771E-02  0.1126479E+00
        -11   -1    0    0    0    0  0.00000000000E+00  0.00000000000E+00  0.12500000000E+03  0.12500000000E+03  0.00000000000E+00 0.  1.
         11   -1    0    0    0    0 -0.00000000000E+00 -0.00000000000E+00 -0.12500000000E+03  0.12500000000E+03  0.00000000000E+00 0. -1.
         24    1    1    2    0    0  0.39319047457E+02  0.28427592667E+02  0.82484353230E+02  0.12500000000E+03  0.80419002446E+02 0.  1.
        -24    1    1    2    0    0 -0.39319047457E+02 -0.28427592667E+02 -0.82484353230E+02  0.12500000000E+03  0.80419002446E+02 0. -1.
</event>
<event>
 4    1  0.1590495E-001  0.1250000E+03  0.7546771E-02  0.1126479E+00
        -11   -1    0    0    0    0  0.00000000000E+00  0.00000000000E+00  0.12500000000E+03  0.12500000000E+03  0.00000000000E+00 0.  1.
         11   -1    0    0    0    0 -0.00000000000E+00 -0.00000000000E+00 -0.12500000000E+03  0.12500000000E+03  0.00000000000E+00 0. -1.
         24    1    1    2    0    0 -0.29100736190E+02  0.69905669509E+02  0.58516053945E+02  0.12500000000E+03  0.80419002446E+02 0.  1.
        -24    1    1    2    0    0  0.29100736190E+02 -0.69905669509E+02 -0.58516053945E+02  0.12500000000E+03  0.80419002446E+02 0. -1.
</event>
<event>
 4    1  0.1590495E-001  0.1250000E+03  0.7546771E-02  0.1126479E+00
        -11   -1    0    0    0    0  0.00000000000E+00  0.00000000000E+00  0.12500000000E+03  0.12500000000E+03  0.00000000000E+00 0.  1.
         11   -1    0    0    0    0 -0.00000000000E+00 -0.00000000000E+00 -0.12500000000E+03  0.12500000000E+03  0.00000000000E+00 0. -1.
         24    1    1    2    0    0 -0.21573455361E+02  0.65533022560E+02  0.66315858010E+02  0.12500000000E+03  0.80419002446E+02 0.  1.
        -24    1    1    2    0    0  0.21573455361E+02 -0.65533022560E+02 -0.66315858010E+02  0.12500000000E+03  0.80419002446E+02 0. -1.
</event>
<event>
 4    1  0.1590495E-001  0.1250000E+03  0.7546771E-02  0.1126479E+00
        -11   -1    0    0    0    0  0.00000000000E+00  0.00000000000E+00  0.12500000000E+03  0.12500000000E+03  0.00000000000E+00 0.  1.
         11   -1    0    0    0    0 -0.00000000000E+00 -0.00000000000E+00 -0.12500000000E+03  0.12500000000E+03  0.00000000000E+00 0. -1.
         24    1    1    2    0    0  0.51279986518E+02  0.64824309516E+02  0.48228165257E+02  0.12500000000E+03  0.80419002446E+02 0. -1.
        -24    1    1    2    0    0 -0.51279986518E+02 -0.64824309516E+02 -0.48228165257E+02  0.12500000000E+03  0.80419002446E+02 0.  0.
</event>
<event>
 4    1  0.1590495E-001  0.1250000E+03  0.7546771E-02  0.1126479E+00
        -11   -1    0    0    0    0  0.00000000000E+00  0.00000000000E+00  0.12500000000E+03  0.12500000000E+03  0.00000000000E+00 0.  1.
         11   -1    0    0    0    0 -0.00000000000E+00 -0.00000000000E+00 -0.12500000000E+03  0.12500000000E+03  0.00000000000E+00 0. -1.
         24    1    1    2    0    0  0.63386183310E+02 -0.45313197939E+02  0.55557986857E+02  0.12500000000E+03  0.80419002446E+02 0.  1.
        -24    1    1    2    0    0 -0.63386183310E+02  0.45313197939E+02 -0.55557986857E+02  0.12500000000E+03  0.80419002446E+02 0. -1.
</event>
<event>
 4    1  0.1590495E-001  0.1250000E+03  0.7546771E-02  0.1126479E+00
        -11   -1    0    0    0    0  0.00000000000E+00  0.00000000000E+00  0.12500000000E+03  0.12500000000E+03  0.00000000000E+00 0.  1.
         11   -1    0    0    0    0 -0.00000000000E+00 -0.00000000000E+00 -0.12500000000E+03  0.12500000000E+03  0.00000000000E+00 0. -1.
         24    1    1    2    0    0  0.21791242838E+02  0.60649568645E+02  0.70742883772E+02  0.12500000000E+03  0.80419002446E+02 0.  1.
        -24    1    1    2    0    0 -0.21791242838E+02 -0.60649568645E+02 -0.70742883772E+02  0.12500000000E+03  0.80419002446E+02 0. -1.
</event>
<event>
 4    1  0.1590495E-001  0.1250000E+03  0.7546771E-02  0.1126479E+00
        -11   -1    0    0    0    0  0.00000000000E+00  0.00000000000E+00  0.12500000000E+03  0.12500000000E+03  0.00000000000E+00 0.  1.
         11   -1    0    0    0    0 -0.00000000000E+00 -0.00000000000E+00 -0.12500000000E+03  0.12500000000E+03  0.00000000000E+00 0. -1.
         24    1    1    2    0    0 -0.22767591360E+02 -0.22105929316E+01  0.92922193841E+02  0.12500000000E+03  0.80419002446E+02 0.  1.
        -24    1    1    2    0    0  0.22767591360E+02  0.22105929316E+01 -0.92922193841E+02  0.12500000000E+03  0.80419002446E+02 0. -1.
</event>
<event>
 4    1  0.1590495E-001  0.1250000E+03  0.7546771E-02  0.1126479E+00
        -11   -1    0    0    0    0  0.00000000000E+00  0.00000000000E+00  0.12500000000E+03  0.12500000000E+03  0.00000000000E+00 0.  1.
         11   -1    0    0    0    0 -0.00000000000E+00 -0.00000000000E+00 -0.12500000000E+03  0.12500000000E+03  0.00000000000E+00 0. -1.
         24    1    1    2    0    0  0.51404176578E+02  0.30327499282E+02  0.74803993632E+02  0.12500000000E+03  0.80419002446E+02 0.  1.
        -24    1    1    2    0    0 -0.51404176578E+02 -0.30327499282E+02 -0.74803993632E+02  0.12500000000E+03  0.80419002446E+02 0. -1.
</event>
<event>
 4    1  0.1590495E-001  0.1250000E+03  0.7546771E-02  0.1126479E+00
        -11   -1    0    0    0    0  0.00000000000E+00  0.00000000000E+00  0.12500000000E+03  0.12500000000E+03  0.00000000000E+00 0.  1.
         11   -1    0    0    0    0 -0.00000000000E+00 -0.00000000000E+00 -0.12500000000E+03  0.12500000000E+03  0.00000000000E+00 0. -1.
         24    1    1    2    0    0  0.63186301582E+02 -0.13212864181E+02  0.70644855143E+02  0.12500000000E+03  0.80419002446E+02 0.  1.
        -24    1    1    2    0    0 -0.63186301582E+02  0.13212864181E+02 -0.70644855143E+02  0.12500000000E+03  0.80419002446E+02 0. -1.
</event>
<event>
 4    1  0.1590495E-001  0.1250000E+03  0.7546771E-02  0.1126479E+00
        -11   -1    0    0    0    0  0.00000000000E+00  0.00000000000E+00  0.12500000000E+03  0.12500000000E+03  0.00000000000E+00 0.  1.
         11   -1    0    0    0    0 -0.00000000000E+00 -0.00000000000E+00 -0.12500000000E+03  0.12500000000E+03  0.00000000000E+00 0. -1.
         24    1    1    2    0    0  0.24361888308E+02 -0.70251556799E+02  0.60241191979E+02  0.12500000000E+03  0.80419002446E+02 0.  1.
        -24    1    1    2    0    0 -0.24361888308E+02  0.70251556799E+02 -0.60241191979E+02  0.12500000000E+03  0.80419002446E+02 0. -1.
</event>
<event>
 4    1  0.1590495E-001  0.1250000E+03  0.7546771E-02  0.1126479E+00
        -11   -1    0    0    0    0  0.00000000000E+00  0.00000000000E+00  0.12500000000E+03  0.12500000000E+03  0.00000000000E+00 0.  1.
         11   -1    0    0    0    0 -0.00000000000E+00 -0.00000000000E+00 -0.12500000000E+03  0.12500000000E+03  0.00000000000E+00 0. -1.
         24    1    1    2    0    0 -0.86242335954E+01  0.96612476519E+01  0.94815963499E+02  0.12500000000E+03  0.80419002446E+02 0.  1.
        -24    1    1    2    0    0  0.86242335954E+01 -0.96612476519E+01 -0.94815963499E+02  0.12500000000E+03  0.80419002446E+02 0. -1.
</event>
<event>
 4    1  0.1590495E-001  0.1250000E+03  0.7546771E-02  0.1126479E+00
        -11   -1    0    0    0    0  0.00000000000E+00  0.00000000000E+00  0.12500000000E+03  0.12500000000E+03  0.00000000000E+00 0.  1.
         11   -1    0    0    0    0 -0.00000000000E+00 -0.00000000000E+00 -0.12500000000E+03  0.12500000000E+03  0.00000000000E+00 0. -1.
         24    1    1    2    0    0 -0.11866002598E+02  0.29305156776E+02  0.90322698223E+02  0.12500000000E+03  0.80419002446E+02 0.  1.
        -24    1    1    2    0    0  0.11866002598E+02 -0.29305156776E+02 -0.90322698223E+02  0.12500000000E+03  0.80419002446E+02 0. -1.
</event>
<event>
 4    1  0.1590495E-001  0.1250000E+03  0.7546771E-02  0.1126479E+00
        -11   -1    0    0    0    0  0.00000000000E+00  0.00000000000E+00  0.12500000000E+03  0.12500000000E+03  0.00000000000E+00 0.  1.
         11   -1    0    0    0    0 -0.00000000000E+00 -0.00000000000E+00 -0.12500000000E+03  0.12500000000E+03  0.00000000000E+00 0. -1.
         24    1    1    2    0    0  0.37651861842E+02 -0.20890669805E+02  0.85461694698E+02  0.12500000000E+03  0.80419002446E+02 0.  0.
        -24    1    1    2    0    0 -0.37651861842E+02  0.20890669805E+02 -0.85461694698E+02  0.12500000000E+03  0.80419002446E+02 0.  0.
</event>
<event>
 4    1  0.1590495E-001  0.1250000E+03  0.7546771E-02  0.1126479E+00
        -11   -1    0    0    0    0  0.00000000000E+00  0.00000000000E+00  0.12500000000E+03  0.12500000000E+03  0.00000000000E+00 0.  1.
         11   -1    0    0    0    0 -0.00000000000E+00 -0.00000000000E+00 -0.12500000000E+03  0.12500000000E+03  0.00000000000E+00 0. -1.
         24    1    1    2    0    0  0.82640070932E+02  0.23618622894E+02  0.42078062867E+02  0.12500000000E+03  0.80419002446E+02 0.  0.
        -24    1    1    2    0    0 -0.82640070932E+02 -0.23618622894E+02 -0.42078062867E+02  0.12500000000E+03  0.80419002446E+02 0. -1.
</event>
<event>
 4    1  0.1590495E-001  0.1250000E+03  0.7546771E-02  0.1126479E+00
        -11   -1    0    0    0    0  0.00000000000E+00  0.00000000000E+00  0.12500000000E+03  0.12500000000E+03  0.00000000000E+00 0.  1.
         11   -1    0    0    0    0 -0.00000000000E+00 -0.00000000000E+00 -0.12500000000E+03  0.12500000000E+03  0.00000000000E+00 0. -1.
         24    1    1    2    0    0 -0.38545073573E+02 -0.16663461341E+01  0.87574451979E+02  0.12500000000E+03  0.80419002446E+02 0.  1.
        -24    1    1    2    0    0  0.38545073573E+02  0.16663461341E+01 -0.87574451979E+02  0.12500000000E+03  0.80419002446E+02 0. -1.
</event>
<event>
 4    1  0.1590495E-001  0.1250000E+03  0.7546771E-02  0.1126479E+00
        -11   -1    0    0    0    0  0.00000000000E+00  0.00000000000E+00  0.12500000000E+03  0.12500000000E+03  0.00000000000E+00 0.  1.
         11   -1    0    0    0    0 -0.00000000000E+00 -0.00000000000E+00 -0.12500000000E+03  0.12500000000E+03  0.00000000000E+00 0. -1.
         24    1    1    2    0    0 -0.59555232928E+02  0.20790017083E+02  0.71963417555E+02  0.12500000000E+03  0.80419002446E+02 0.  1.
        -24    1    1    2    0    0  0.59555232928E+02 -0.20790017083E+02 -0.71963417555E+02  0.12500000000E+03  0.80419002446E+02 0. -1.
</event>
<event>
 4    1  0.1590495E-001  0.1250000E+03  0.7546771E-02  0.1126479E+00
        -11   -1    0    0    0    0  0.00000000000E+00  0.00000000000E+00  0.12500000000E+03  0.12500000000E+03  0.00000000000E+00 0.  1.
         11   -1    0    0    0    0 -0.00000000000E+00 -0.00000000000E+00 -0.12500000000E+03  0.12500000000E+03  0.00000000000E+00 0. -1.
         24    1    1    2    0    0  0.20155800996E+02 -0.10551623722E+02  0.92952627551E+02  0.12500000000E+03  0.80419002446E+02 0.  0.
        -24    1    1    2    0    0 -0.20155800996E+02  0.10551623722E+02 -0.92952627551E+02  0.12500000000E+03  0.80419002446E+02 0. -1.
</event>
<event>
 4    1  0.1590495E-001  0.1250000E+03  0.7546771E-02  0.1126479E+00
        -11   -1    0    0    0    0  0.00000000000E+00  0.00000000000E+00  0.12500000000E+03  0.12500000000E+03  0.00000000000E+00 0.  1.
         11   -1    0    0    0    0 -0.00000000000E+00 -0.00000000000E+00 -0.12500000000E+03  0.12500000000E+03  0.00000000000E+00 0. -1.
         24    1    1    2    0    0  0.34045599174E+01 -0.78586216867E+02  0.54501371871E+02  0.12500000000E+03  0.80419002446E+02 0.  1.
        -24    1    1    2    0    0 -0.34045599174E+01  0.78586216867E+02 -0.54501371871E+02  0.12500000000E+03  0.80419002446E+02 0. -1.
</event>
<event>
 4    1  0.1590495E-001  0.1250000E+03  0.7546771E-02  0.1126479E+00
        -11   -1    0    0    0    0  0.00000000000E+00  0.00000000000E+00  0.12500000000E+03  0.12500000000E+03  0.00000000000E+00 0.  1.
         11   -1    0    0    0    0 -0.00000000000E+00 -0.00000000000E+00 -0.12500000000E+03  0.12500000000E+03  0.00000000000E+00 0. -1.
         24    1    1    2    0    0 -0.20643446982E+02  0.79243617711E+01  0.93106587484E+02  0.12500000000E+03  0.80419002446E+02 0.  1.
        -24    1    1    2    0    0  0.20643446982E+02 -0.79243617711E+01 -0.93106587484E+02  0.12500000000E+03  0.80419002446E+02 0. -1.
</event>
<event>
 4    1  0.1590495E-001  0.1250000E+03  0.7546771E-02  0.1126479E+00
        -11   -1    0    0    0    0  0.00000000000E+00  0.00000000000E+00  0.12500000000E+03  0.12500000000E+03  0.00000000000E+00 0.  1.
         11   -1    0    0    0    0 -0.00000000000E+00 -0.00000000000E+00 -0.12500000000E+03  0.12500000000E+03  0.00000000000E+00 0. -1.
         24    1    1    2    0    0 -0.18535196897E+02 -0.87030954013E+01  0.93479872978E+02  0.12500000000E+03  0.80419002446E+02 0.  1.
        -24    1    1    2    0    0  0.18535196897E+02  0.87030954013E+01 -0.93479872978E+02  0.12500000000E+03  0.80419002446E+02 0. -1.
</event>
<event>
 4    1  0.1590495E-001  0.1250000E+03  0.7546771E-02  0.1126479E+00
        -11   -1    0    0    0    0  0.00000000000E+00  0.00000000000E+00  0.12500000000E+03  0.12500000000E+03  0.00000000000E+00 0.  1.
         11   -1    0    0    0    0 -0.00000000000E+00 -0.00000000000E+00 -0.12500000000E+03  0.12500000000E+03  0.00000000000E+00 0. -1.
         24    1    1    2    0    0  0.21414676007E+02 -0.22689483951E+02  0.90467579912E+02  0.12500000000E+03  0.80419002446E+02 0.  1.
        -24    1    1    2    0    0 -0.21414676007E+02  0.22689483951E+02 -0.90467579912E+02  0.12500000000E+03  0.80419002446E+02 0. -1.
</event>
<event>
 4    1  0.1590495E-001  0.1250000E+03  0.7546771E-02  0.1126479E+00
        -11   -1    0    0    0    0  0.00000000000E+00  0.00000000000E+00  0.12500000000E+03  0.12500000000E+03  0.00000000000E+00 0.  1.
         11   -1    0    0    0    0 -0.00000000000E+00 -0.00000000000E+00 -0.12500000000E+03  0.12500000000E+03  0.00000000000E+00 0. -1.
         24    1    1    2    0    0  0.19205403028E+02  0.49252978638E+02  0.79768920235E+02  0.12500000000E+03  0.80419002446E+02 0.  1.
        -24    1    1    2    0    0 -0.19205403028E+02 -0.49252978638E+02 -0.79768920235E+02  0.12500000000E+03  0.80419002446E+02 0. -1.
</event>
<event>
 4    1  0.1590495E-001  0.1250000E+03  0.7546771E-02  0.1126479E+00
        -11   -1    0    0    0    0  0.00000000000E+00  0.00000000000E+00  0.12500000000E+03  0.12500000000E+03  0.00000000000E+00 0.  1.
         11   -1    0    0    0    0 -0.00000000000E+00 -0.00000000000E+00 -0.12500000000E+03  0.12500000000E+03  0.00000000000E+00 0. -1.
         24    1    1    2    0    0  0.11218791754E+02 -0.72920785818E+02  0.60946548327E+02  0.12500000000E+03  0.80419002446E+02 0.  0.
        -24    1    1    2    0    0 -0.11218791754E+02  0.72920785818E+02 -0.60946548327E+02  0.12500000000E+03  0.80419002446E+02 0.  1.
</event>
<event>
 4    1  0.1590495E-001  0.1250000E+03  0.7546771E-02  0.1126479E+00
        -11   -1    0    0    0    0  0.00000000000E+00  0.00000000000E+00  0.12500000000E+03  0.12500000000E+03  0.00000000000E+00 0.  1.
         11   -1    0    0    0    0 -0.00000000000E+00 -0.00000000000E+00 -0.12500000000E+03  0.12500000000E+03  0.00000000000E+00 0. -1.
         24    1    1    2    0    0  0.24798063822E+02  0.31404630844E+02  0.86928644519E+02  0.12500000000E+03  0.80419002446E+02 0.  1.
        -24    1    1    2    0    0 -0.24798063822E+02 -0.31404630844E+02 -0.86928644519E+02  0.12500000000E+03  0.80419002446E+02 0. -1.
</event>
<event>
 4    1  0.1590495E-001  0.1250000E+03  0.7546771E-02  0.1126479E+00
        -11   -1    0    0    0    0  0.00000000000E+00  0.00000000000E+00  0.12500000000E+03  0.12500000000E+03  0.00000000000E+00 0.  1.
         11   -1    0    0    0    0 -0.00000000000E+00 -0.00000000000E+00 -0.12500000000E+03  0.12500000000E+03  0.00000000000E+00 0. -1.
         24    1    1    2    0    0  0.72095359174E+02 -0.24598058608E+02  0.57922178342E+02  0.12500000000E+03  0.80419002446E+02 0.  1.
        -24    1    1    2    0    0 -0.72095359174E+02  0.24598058608E+02 -0.57922178342E+02  0.12500000000E+03  0.80419002446E+02 0. -1.
</event>
<event>
 4    1  0.1590495E-001  0.1250000E+03  0.7546771E-02  0.1126479E+00
        -11   -1    0    0    0    0  0.00000000000E+00  0.00000000000E+00  0.12500000000E+03  0.12500000000E+03  0.00000000000E+00 0.  1.
         11   -1    0    0    0    0 -0.00000000000E+00 -0.00000000000E+00 -0.12500000000E+03  0.12500000000E+03  0.00000000000E+00 0. -1.
         24    1    1    2    0    0  0.34235595251E+02 -0.65382490709E+02  0.60916647742E+02  0.12500000000E+03  0.80419002446E+02 0.  1.
        -24    1    1    2    0    0 -0.34235595251E+02  0.65382490709E+02 -0.60916647742E+02  0.12500000000E+03  0.80419002446E+02 0. -1.
</event>
<event>
 4    1  0.1590495E-001  0.1250000E+03  0.7546771E-02  0.1126479E+00
        -11   -1    0    0    0    0  0.00000000000E+00  0.00000000000E+00  0.12500000000E+03  0.12500000000E+03  0.00000000000E+00 0.  1.
         11   -1    0    0    0    0 -0.00000000000E+00 -0.00000000000E+00 -0.12500000000E+03  0.12500000000E+03  0.00000000000E+00 0. -1.
         24    1    1    2    0    0 -0.57435454294E+02 -0.38263498661E+02  0.66293719958E+02  0.12500000000E+03  0.80419002446E+02 0.  1.
        -24    1    1    2    0    0  0.57435454294E+02  0.38263498661E+02 -0.66293719958E+02  0.12500000000E+03  0.80419002446E+02 0. -1.
</event>
<event>
 4    1  0.1590495E-001  0.1250000E+03  0.7546771E-02  0.1126479E+00
        -11   -1    0    0    0    0  0.00000000000E+00  0.00000000000E+00  0.12500000000E+03  0.12500000000E+03  0.00000000000E+00 0.  1.
         11   -1    0    0    0    0 -0.00000000000E+00 -0.00000000000E+00 -0.12500000000E+03  0.12500000000E+03  0.00000000000E+00 0. -1.
         24    1    1    2    0    0  0.68115703686E+02 -0.55368280629E+02 -0.38110214604E+02  0.12500000000E+03  0.80419002446E+02 0.  1.
        -24    1    1    2    0    0 -0.68115703686E+02  0.55368280629E+02  0.38110214604E+02  0.12500000000E+03  0.80419002446E+02 0. -1.
</event>
<event>
 4    1  0.1590495E-001  0.1250000E+03  0.7546771E-02  0.1126479E+00
        -11   -1    0    0    0    0  0.00000000000E+00  0.00000000000E+00  0.12500000000E+03  0.12500000000E+03  0.00000000000E+00 0.  1.
         11   -1    0    0    0    0 -0.00000000000E+00 -0.00000000000E+00 -0.12500000000E+03  0.12500000000E+03  0.00000000000E+00 0. -1.
         24    1    1    2    0    0  0.54929374535E+02 -0.46836627057E+02  0.62824185031E+02  0.12500000000E+03  0.80419002446E+02 0.  1.
        -24    1    1    2    0    0 -0.54929374535E+02  0.46836627057E+02 -0.62824185031E+02  0.12500000000E+03  0.80419002446E+02 0. -1.
</event>
<event>
 4    1  0.1590495E-001  0.1250000E+03  0.7546771E-02  0.1126479E+00
        -11   -1    0    0    0    0  0.00000000000E+00  0.00000000000E+00  0.12500000000E+03  0.12500000000E+03  0.00000000000E+00 0.  1.
         11   -1    0    0    0    0 -0.00000000000E+00 -0.00000000000E+00 -0.12500000000E+03  0.12500000000E+03  0.00000000000E+00 0. -1.
         24    1    1    2    0    0  0.15079832158E+02 -0.20708188244E+02  0.92203870024E+02  0.12500000000E+03  0.80419002446E+02 0.  0.
        -24    1    1    2    0    0 -0.15079832158E+02  0.20708188244E+02 -0.92203870024E+02  0.12500000000E+03  0.80419002446E+02 0. -1.
</event>
<event>
 4    1  0.1590495E-001  0.1250000E+03  0.7546771E-02  0.1126479E+00
        -11   -1    0    0    0    0  0.00000000000E+00  0.00000000000E+00  0.12500000000E+03  0.12500000000E+03  0.00000000000E+00 0.  1.
         11   -1    0    0    0    0 -0.00000000000E+00 -0.00000000000E+00 -0.12500000000E+03  0.12500000000E+03  0.00000000000E+00 0. -1.
         24    1    1    2    0    0 -0.64697872412E+02  0.43201538534E+02  0.55727878296E+02  0.12500000000E+03  0.80419002446E+02 0.  1.
        -24    1    1    2    0    0  0.64697872412E+02 -0.43201538534E+02 -0.55727878296E+02  0.12500000000E+03  0.80419002446E+02 0. -1.
</event>
<event>
 4    1  0.1590495E-001  0.1250000E+03  0.7546771E-02  0.1126479E+00
        -11   -1    0    0    0    0  0.00000000000E+00  0.00000000000E+00  0.12500000000E+03  0.12500000000E+03  0.00000000000E+00 0.  1.
         11   -1    0    0    0    0 -0.00000000000E+00 -0.00000000000E+00 -0.12500000000E+03  0.12500000000E+03  0.00000000000E+00 0. -1.
         24    1    1    2    0    0  0.11335803008E+02 -0.73775170940E+02  0.59887459193E+02  0.12500000000E+03  0.80419002446E+02 0.  1.
        -24    1    1    2    0    0 -0.11335803008E+02  0.73775170940E+02 -0.59887459193E+02  0.12500000000E+03  0.80419002446E+02 0. -1.
</event>
<event>
 4    1  0.1590495E-001  0.1250000E+03  0.7546771E-02  0.1126479E+00
        -11   -1    0    0    0    0  0.00000000000E+00  0.00000000000E+00  0.12500000000E+03  0.12500000000E+03  0.00000000000E+00 0.  1.
         11   -1    0    0    0    0 -0.00000000000E+00 -0.00000000000E+00 -0.12500000000E+03  0.12500000000E+03  0.00000000000E+00 0. -1.
         24    1    1    2    0    0  0.42192005492E+02  0.84783212017E+02  0.13763200145E+02  0.12500000000E+03  0.80419002446E+02 0.  1.
        -24    1    1    2    0    0 -0.42192005492E+02 -0.84783212017E+02 -0.13763200145E+02  0.12500000000E+03  0.80419002446E+02 0.  0.
</event>
<event>
 4    1  0.1590495E-001  0.1250000E+03  0.7546771E-02  0.1126479E+00
        -11   -1    0    0    0    0  0.00000000000E+00  0.00000000000E+00  0.12500000000E+03  0.12500000000E+03  0.00000000000E+00 0.  1.
         11   -1    0    0    0    0 -0.00000000000E+00 -0.00000000000E+00 -0.12500000000E+03  0.12500000000E+03  0.00000000000E+00 0. -1.
         24    1    1    2    0    0 -0.70151695635E+02 -0.38828231533E+02  0.52238798619E+02  0.12500000000E+03  0.80419002446E+02 0.  1.
        -24    1    1    2    0    0  0.70151695635E+02  0.38828231533E+02 -0.52238798619E+02  0.12500000000E+03  0.80419002446E+02 0. -1.
</event>
<event>
 4    1  0.1590495E-001  0.1250000E+03  0.7546771E-02  0.1126479E+00
        -11   -1    0    0    0    0  0.00000000000E+00  0.00000000000E+00  0.12500000000E+03  0.12500000000E+03  0.00000000000E+00 0.  1.
         11   -1    0    0    0    0 -0.00000000000E+00 -0.00000000000E+00 -0.12500000000E+03  0.12500000000E+03  0.00000000000E+00 0. -1.
         24    1    1    2    0    0 -0.19950771121E+02 -0.12303353595E+02  0.92781346550E+02  0.12500000000E+03  0.80419002446E+02 0.  1.
        -24    1    1    2    0    0  0.19950771121E+02  0.12303353595E+02 -0.92781346550E+02  0.12500000000E+03  0.80419002446E+02 0. -1.
</event>
<event>
 4    1  0.1590495E-001  0.1250000E+03  0.7546771E-02  0.1126479E+00
        -11   -1    0    0    0    0  0.00000000000E+00  0.00000000000E+00  0.12500000000E+03  0.12500000000E+03  0.00000000000E+00 0.  1.
         11   -1    0    0    0    0 -0.00000000000E+00 -0.00000000000E+00 -0.12500000000E+03  0.12500000000E+03  0.00000000000E+00 0. -1.
         24    1    1    2    0    0  0.32436394861E+02 -0.43089081752E+02  0.79050587397E+02  0.12500000000E+03  0.80419002446E+02 0.  1.
        -24    1    1    2    0    0 -0.32436394861E+02  0.43089081752E+02 -0.79050587397E+02  0.12500000000E+03  0.80419002446E+02 0. -1.
</event>
<event>
 4    1  0.1590495E-001  0.1250000E+03  0.7546771E-02  0.1126479E+00
        -11   -1    0    0    0    0  0.00000000000E+00  0.00000000000E+00  0.12500000000E+03  0.12500000000E+03  0.00000000000E+00 0.  1.
         11   -1    0    0    0    0 -0.00000000000E+00 -0.00000000000E+00 -0.12500000000E+03  0.12500000000E+03  0.00000000000E+00 0. -1.
         24    1    1    2    0    0 -0.95494799918E+01  0.14146608342E+02  0.94161908169E+02  0.12500000000E+03  0.80419002446E+02 0.  1.
        -24    1    1    2    0    0  0.95494799918E+01 -0.14146608342E+02 -0.94161908169E+02  0.12500000000E+03  0.80419002446E+02 0. -1.
</event>
<event>
 4    1  0.1590495E-001  0.1250000E+03  0.7546771E-02  0.1126479E+00
        -11   -1    0    0    0    0  0.00000000000E+00  0.00000000000E+00  0.12500000000E+03  0.12500000000E+03  0.00000000000E+00 0.  1.
         11   -1    0    0    0    0 -0.00000000000E+00 -0.00000000000E+00 -0.12500000000E+03  0.12500000000E+03  0.00000000000E+00 0. -1.
         24    1    1    2    0    0  0.46687965490E+02  0.15125628911E+02  0.82153717348E+02  0.12500000000E+03  0.80419002446E+02 0.  1.
        -24    1    1    2    0    0 -0.46687965490E+02 -0.15125628911E+02 -0.82153717348E+02  0.12500000000E+03  0.80419002446E+02 0. -1.
</event>
<event>
 4    1  0.1590495E-001  0.1250000E+03  0.7546771E-02  0.1126479E+00
        -11   -1    0    0    0    0  0.00000000000E+00  0.00000000000E+00  0.12500000000E+03  0.12500000000E+03  0.00000000000E+00 0.  1.
         11   -1    0    0    0    0 -0.00000000000E+00 -0.00000000000E+00 -0.12500000000E+03  0.12500000000E+03  0.00000000000E+00 0. -1.
         24    1    1    2    0    0 -0.36045986115E+02 -0.42396792803E+02  0.77852314613E+02  0.12500000000E+03  0.80419002446E+02 0.  1.
        -24    1    1    2    0    0  0.36045986115E+02  0.42396792803E+02 -0.77852314613E+02  0.12500000000E+03  0.80419002446E+02 0. -1.
</event>
<event>
 4    1  0.1590495E-001  0.1250000E+03  0.7546771E-02  0.1126479E+00
        -11   -1    0    0    0    0  0.00000000000E+00  0.00000000000E+00  0.12500000000E+03  0.12500000000E+03  0.00000000000E+00 0.  1.
         11   -1    0    0    0    0 -0.00000000000E+00 -0.00000000000E+00 -0.12500000000E+03  0.12500000000E+03  0.00000000000E+00 0. -1.
         24    1    1    2    0    0 -0.58703082995E+02  0.28692045792E+01  0.75521518507E+02  0.12500000000E+03  0.80419002446E+02 0.  1.
        -24    1    1    2    0    0  0.58703082995E+02 -0.28692045792E+01 -0.75521518507E+02  0.12500000000E+03  0.80419002446E+02 0. -1.
</event>
<event>
 4    1  0.1590495E-001  0.1250000E+03  0.7546771E-02  0.1126479E+00
        -11   -1    0    0    0    0  0.00000000000E+00  0.00000000000E+00  0.12500000000E+03  0.12500000000E+03  0.00000000000E+00 0.  1.
         11   -1    0    0    0    0 -0.00000000000E+00 -0.00000000000E+00 -0.12500000000E+03  0.12500000000E+03  0.00000000000E+00 0. -1.
         24    1    1    2    0    0  0.25407438508E+02 -0.11379591486E+02  0.91557364596E+02  0.12500000000E+03  0.80419002446E+02 0.  1.
        -24    1    1    2    0    0 -0.25407438508E+02  0.11379591486E+02 -0.91557364596E+02  0.12500000000E+03  0.80419002446E+02 0. -1.
</event>
<event>
 4    1  0.1590495E-001  0.1250000E+03  0.7546771E-02  0.1126479E+00
        -11   -1    0    0    0    0  0.00000000000E+00  0.00000000000E+00  0.12500000000E+03  0.12500000000E+03  0.00000000000E+00 0.  1.
         11   -1    0    0    0    0 -0.00000000000E+00 -0.00000000000E+00 -0.12500000000E+03  0.12500000000E+03  0.00000000000E+00 0. -1.
         24    1    1    2    0    0  0.91697526751E+01  0.55964282499E+02  0.77082415413E+02  0.12500000000E+03  0.80419002446E+02 0.  1.
        -24    1    1    2    0    0 -0.91697526751E+01 -0.55964282499E+02 -0.77082415413E+02  0.12500000000E+03  0.80419002446E+02 0. -1.
</event>
<event>
 4    1  0.1590495E-001  0.1250000E+03  0.7546771E-02  0.1126479E+00
        -11   -1    0    0    0    0  0.00000000000E+00  0.00000000000E+00  0.12500000000E+03  0.12500000000E+03  0.00000000000E+00 0.  1.
         11   -1    0    0    0    0 -0.00000000000E+00 -0.00000000000E+00 -0.12500000000E+03  0.12500000000E+03  0.00000000000E+00 0. -1.
         24    1    1    2    0    0 -0.20849754304E+02  0.76706207624E+01  0.93081863798E+02  0.12500000000E+03  0.80419002446E+02 0.  1.
        -24    1    1    2    0    0  0.20849754304E+02 -0.76706207624E+01 -0.93081863798E+02  0.12500000000E+03  0.80419002446E+02 0. -1.
</event>
<event>
 4    1  0.1590495E-001  0.1250000E+03  0.7546771E-02  0.1126479E+00
        -11   -1    0    0    0    0  0.00000000000E+00  0.00000000000E+00  0.12500000000E+03  0.12500000000E+03  0.00000000000E+00 0.  1.
         11   -1    0    0    0    0 -0.00000000000E+00 -0.00000000000E+00 -0.12500000000E+03  0.12500000000E+03  0.00000000000E+00 0. -1.
         24    1    1    2    0    0  0.23829026212E+02 -0.57072071606E+02  0.73025613301E+02  0.12500000000E+03  0.80419002446E+02 0.  1.
        -24    1    1    2    0    0 -0.23829026212E+02  0.57072071606E+02 -0.73025613301E+02  0.12500000000E+03  0.80419002446E+02 0. -1.
</event>
<event>
 4    1  0.1590495E-001  0.1250000E+03  0.7546771E-02  0.1126479E+00
        -11   -1    0    0    0    0  0.00000000000E+00  0.00000000000E+00  0.12500000000E+03  0.12500000000E+03  0.00000000000E+00 0.  1.
         11   -1    0    0    0    0 -0.00000000000E+00 -0.00000000000E+00 -0.12500000000E+03  0.12500000000E+03  0.00000000000E+00 0. -1.
         24    1    1    2    0    0 -0.76509172960E+02  0.57236434228E+02 -0.53029327196E+01  0.12500000000E+03  0.80419002446E+02 0. -1.
        -24    1    1    2    0    0  0.76509172960E+02 -0.57236434228E+02  0.53029327196E+01  0.12500000000E+03  0.80419002446E+02 0.  1.
</event>
<event>
 4    1  0.1590495E-001  0.1250000E+03  0.7546771E-02  0.1126479E+00
        -11   -1    0    0    0    0  0.00000000000E+00  0.00000000000E+00  0.12500000000E+03  0.12500000000E+03  0.00000000000E+00 0.  1.
         11   -1    0    0    0    0 -0.00000000000E+00 -0.00000000000E+00 -0.12500000000E+03  0.12500000000E+03  0.00000000000E+00 0. -1.
         24    1    1    2    0    0  0.26356706041E+02  0.44488660998E+02  0.80522463542E+02  0.12500000000E+03  0.80419002446E+02 0.  1.
        -24    1    1    2    0    0 -0.26356706041E+02 -0.44488660998E+02 -0.80522463542E+02  0.12500000000E+03  0.80419002446E+02 0. -1.
</event>
<event>
 4    1  0.1590495E-001  0.1250000E+03  0.7546771E-02  0.1126479E+00
        -11   -1    0    0    0    0  0.00000000000E+00  0.00000000000E+00  0.12500000000E+03  0.12500000000E+03  0.00000000000E+00 0.  1.
         11   -1    0    0    0    0 -0.00000000000E+00 -0.00000000000E+00 -0.12500000000E+03  0.12500000000E+03  0.00000000000E+00 0. -1.
         24    1    1    2    0    0  0.50281440114E+02 -0.74736260935E+01  0.81078392551E+02  0.12500000000E+03  0.80419002446E+02 0.  1.
        -24    1    1    2    0    0 -0.50281440114E+02  0.74736260935E+01 -0.81078392551E+02  0.12500000000E+03  0.80419002446E+02 0. -1.
</event>
<event>
 4    1  0.1590495E-001  0.1250000E+03  0.7546771E-02  0.1126479E+00
        -11   -1    0    0    0    0  0.00000000000E+00  0.00000000000E+00  0.12500000000E+03  0.12500000000E+03  0.00000000000E+00 0.  1.
         11   -1    0    0    0    0 -0.00000000000E+00 -0.00000000000E+00 -0.12500000000E+03  0.12500000000E+03  0.00000000000E+00 0. -1.
         24    1    1    2    0    0 -0.32231919148E+02 -0.82527251680E+02  0.36168220357E+02  0.12500000000E+03  0.80419002446E+02 0. -1.
        -24    1    1    2    0    0  0.32231919148E+02  0.82527251680E+02 -0.36168220357E+02  0.12500000000E+03  0.80419002446E+02 0.  1.
</event>
<event>
 4    1  0.1590495E-001  0.1250000E+03  0.7546771E-02  0.1126479E+00
        -11   -1    0    0    0    0  0.00000000000E+00  0.00000000000E+00  0.12500000000E+03  0.12500000000E+03  0.00000000000E+00 0.  1.
         11   -1    0    0    0    0 -0.00000000000E+00 -0.00000000000E+00 -0.12500000000E+03  0.12500000000E+03  0.00000000000E+00 0. -1.
         24    1    1    2    0    0 -0.36309013539E+02  0.51422600851E+02  0.72077428528E+02  0.12500000000E+03  0.80419002446E+02 0.  1.
        -24    1    1    2    0    0  0.36309013539E+02 -0.51422600851E+02 -0.72077428528E+02  0.12500000000E+03  0.80419002446E+02 0. -1.
</event>
<event>
 4    1  0.1590495E-001  0.1250000E+03  0.7546771E-02  0.1126479E+00
        -11   -1    0    0    0    0  0.00000000000E+00  0.00000000000E+00  0.12500000000E+03  0.12500000000E+03  0.00000000000E+00 0.  1.
         11   -1    0    0    0    0 -0.00000000000E+00 -0.00000000000E+00 -0.12500000000E+03  0.12500000000E+03  0.00000000000E+00 0. -1.
         24    1    1    2    0    0  0.54517503944E+02 -0.37714910822E+02 -0.69016022132E+02  0.12500000000E+03  0.80419002446E+02 0. -1.
        -24    1    1    2    0    0 -0.54517503944E+02  0.37714910822E+02  0.69016022132E+02  0.12500000000E+03  0.80419002446E+02 0.  1.
</event>
<event>
 4    1  0.1590495E-001  0.1250000E+03  0.7546771E-02  0.1126479E+00
        -11   -1    0    0    0    0  0.00000000000E+00  0.00000000000E+00  0.12500000000E+03  0.12500000000E+03  0.00000000000E+00 0.  1.
         11   -1    0    0    0    0 -0.00000000000E+00 -0.00000000000E+00 -0.12500000000E+03  0.12500000000E+03  0.00000000000E+00 0. -1.
         24    1    1    2    0    0  0.82208766334E+02 -0.29472123266E+02  0.39126675475E+02  0.12500000000E+03  0.80419002446E+02 0.  1.
        -24    1    1    2    0    0 -0.82208766334E+02  0.29472123266E+02 -0.39126675475E+02  0.12500000000E+03  0.80419002446E+02 0. -1.
</event>
<event>
 4    1  0.1590495E-001  0.1250000E+03  0.7546771E-02  0.1126479E+00
        -11   -1    0    0    0    0  0.00000000000E+00  0.00000000000E+00  0.12500000000E+03  0.12500000000E+03  0.00000000000E+00 0.  1.
         11   -1    0    0    0    0 -0.00000000000E+00 -0.00000000000E+00 -0.12500000000E+03  0.12500000000E+03  0.00000000000E+00 0. -1.
         24    1    1    2    0    0  0.71320118960E+02 -0.44092517194E+02  0.46120219044E+02  0.12500000000E+03  0.80419002446E+02 0.  0.
        -24    1    1    2    0    0 -0.71320118960E+02  0.44092517194E+02 -0.46120219044E+02  0.12500000000E+03  0.80419002446E+02 0.  1.
</event>
<event>
 4    1  0.1590495E-001  0.1250000E+03  0.7546771E-02  0.1126479E+00
        -11   -1    0    0    0    0  0.00000000000E+00  0.00000000000E+00  0.12500000000E+03  0.12500000000E+03  0.00000000000E+00 0.  1.
         11   -1    0    0    0    0 -0.00000000000E+00 -0.00000000000E+00 -0.12500000000E+03  0.12500000000E+03  0.00000000000E+00 0. -1.
         24    1    1    2    0    0 -0.38675334134E+02 -0.32673559002E+02  0.81206164282E+02  0.12500000000E+03  0.80419002446E+02 0.  1.
        -24    1    1    2    0    0  0.38675334134E+02  0.32673559002E+02 -0.81206164282E+02  0.12500000000E+03  0.80419002446E+02 0. -1.
</event>
<event>
 4    1  0.1590495E-001  0.1250000E+03  0.7546771E-02  0.1126479E+00
        -11   -1    0    0    0    0  0.00000000000E+00  0.00000000000E+00  0.12500000000E+03  0.12500000000E+03  0.00000000000E+00 0.  1.
         11   -1    0    0    0    0 -0.00000000000E+00 -0.00000000000E+00 -0.12500000000E+03  0.12500000000E+03  0.00000000000E+00 0. -1.
         24    1    1    2    0    0  0.91652025423E+02 -0.22515307803E+02  0.15835125387E+02  0.12500000000E+03  0.80419002446E+02 0.  0.
        -24    1    1    2    0    0 -0.91652025423E+02  0.22515307803E+02 -0.15835125387E+02  0.12500000000E+03  0.80419002446E+02 0. -1.
</event>
<event>
 4    1  0.1590495E-001  0.1250000E+03  0.7546771E-02  0.1126479E+00
        -11   -1    0    0    0    0  0.00000000000E+00  0.00000000000E+00  0.12500000000E+03  0.12500000000E+03  0.00000000000E+00 0.  1.
         11   -1    0    0    0    0 -0.00000000000E+00 -0.00000000000E+00 -0.12500000000E+03  0.12500000000E+03  0.00000000000E+00 0. -1.
         24    1    1    2    0    0  0.35927199705E+02 -0.56707997877E+01  0.88514758073E+02  0.12500000000E+03  0.80419002446E+02 0.  1.
        -24    1    1    2    0    0 -0.35927199705E+02  0.56707997877E+01 -0.88514758073E+02  0.12500000000E+03  0.80419002446E+02 0.  1.
</event>
<event>
 4    1  0.1590495E-001  0.1250000E+03  0.7546771E-02  0.1126479E+00
        -11   -1    0    0    0    0  0.00000000000E+00  0.00000000000E+00  0.12500000000E+03  0.12500000000E+03  0.00000000000E+00 0.  1.
         11   -1    0    0    0    0 -0.00000000000E+00 -0.00000000000E+00 -0.12500000000E+03  0.12500000000E+03  0.00000000000E+00 0. -1.
         24    1    1    2    0    0 -0.36799520369E+02  0.65772164952E+02  0.58971193508E+02  0.12500000000E+03  0.80419002446E+02 0.  1.
        -24    1    1    2    0    0  0.36799520369E+02 -0.65772164952E+02 -0.58971193508E+02  0.12500000000E+03  0.80419002446E+02 0. -1.
</event>
<event>
 4    1  0.1590495E-001  0.1250000E+03  0.7546771E-02  0.1126479E+00
        -11   -1    0    0    0    0  0.00000000000E+00  0.00000000000E+00  0.12500000000E+03  0.12500000000E+03  0.00000000000E+00 0.  1.
         11   -1    0    0    0    0 -0.00000000000E+00 -0.00000000000E+00 -0.12500000000E+03  0.12500000000E+03  0.00000000000E+00 0. -1.
         24    1    1    2    0    0 -0.69632413632E+02 -0.50203342286E+02  0.42293444418E+02  0.12500000000E+03  0.80419002446E+02 0.  1.
        -24    1    1    2    0    0  0.69632413632E+02  0.50203342286E+02 -0.42293444418E+02  0.12500000000E+03  0.80419002446E+02 0. -1.
</event>
<event>
 4    1  0.1590495E-001  0.1250000E+03  0.7546771E-02  0.1126479E+00
        -11   -1    0    0    0    0  0.00000000000E+00  0.00000000000E+00  0.12500000000E+03  0.12500000000E+03  0.00000000000E+00 0.  1.
         11   -1    0    0    0    0 -0.00000000000E+00 -0.00000000000E+00 -0.12500000000E+03  0.12500000000E+03  0.00000000000E+00 0. -1.
         24    1    1    2    0    0  0.13585159461E+02  0.35780988505E+02  0.87709454164E+02  0.12500000000E+03  0.80419002446E+02 0.  0.
        -24    1    1    2    0    0 -0.13585159461E+02 -0.35780988505E+02 -0.87709454164E+02  0.12500000000E+03  0.80419002446E+02 0.  0.
</event>
<event>
 4    1  0.1590495E-001  0.1250000E+03  0.7546771E-02  0.1126479E+00
        -11   -1    0    0    0    0  0.00000000000E+00  0.00000000000E+00  0.12500000000E+03  0.12500000000E+03  0.00000000000E+00 0.  1.
         11   -1    0    0    0    0 -0.00000000000E+00 -0.00000000000E+00 -0.12500000000E+03  0.12500000000E+03  0.00000000000E+00 0. -1.
         24    1    1    2    0    0 -0.37670145142E+02 -0.54766878985E+01  0.87799488041E+02  0.12500000000E+03  0.80419002446E+02 0.  1.
        -24    1    1    2    0    0  0.37670145142E+02  0.54766878985E+01 -0.87799488041E+02  0.12500000000E+03  0.80419002446E+02 0. -1.
</event>
<event>
 4    1  0.1590495E-001  0.1250000E+03  0.7546771E-02  0.1126479E+00
        -11   -1    0    0    0    0  0.00000000000E+00  0.00000000000E+00  0.12500000000E+03  0.12500000000E+03  0.00000000000E+00 0.  1.
         11   -1    0    0    0    0 -0.00000000000E+00 -0.00000000000E+00 -0.12500000000E+03  0.12500000000E+03  0.00000000000E+00 0. -1.
         24    1    1    2    0    0  0.63068896918E+02  0.63880259366E+02  0.33157363444E+02  0.12500000000E+03  0.80419002446E+02 0.  1.
        -24    1    1    2    0    0 -0.63068896918E+02 -0.63880259366E+02 -0.33157363444E+02  0.12500000000E+03  0.80419002446E+02 0.  0.
</event>
<event>
 4    1  0.1590495E-001  0.1250000E+03  0.7546771E-02  0.1126479E+00
        -11   -1    0    0    0    0  0.00000000000E+00  0.00000000000E+00  0.12500000000E+03  0.12500000000E+03  0.00000000000E+00 0.  1.
         11   -1    0    0    0    0 -0.00000000000E+00 -0.00000000000E+00 -0.12500000000E+03  0.12500000000E+03  0.00000000000E+00 0. -1.
         24    1    1    2    0    0  0.92210203799E+01 -0.67310449335E+02  0.67394808696E+02  0.12500000000E+03  0.80419002446E+02 0.  1.
        -24    1    1    2    0    0 -0.92210203799E+01  0.67310449335E+02 -0.67394808696E+02  0.12500000000E+03  0.80419002446E+02 0. -1.
</event>
<event>
 4    1  0.1590495E-001  0.1250000E+03  0.7546771E-02  0.1126479E+00
        -11   -1    0    0    0    0  0.00000000000E+00  0.00000000000E+00  0.12500000000E+03  0.12500000000E+03  0.00000000000E+00 0.  1.
         11   -1    0    0    0    0 -0.00000000000E+00 -0.00000000000E+00 -0.12500000000E+03  0.12500000000E+03  0.00000000000E+00 0. -1.
         24    1    1    2    0    0  0.97437531851E+01  0.13440543464E+02  0.94245398354E+02  0.12500000000E+03  0.80419002446E+02 0.  0.
        -24    1    1    2    0    0 -0.97437531851E+01 -0.13440543464E+02 -0.94245398354E+02  0.12500000000E+03  0.80419002446E+02 0. -1.
</event>
<event>
 4    1  0.1590495E-001  0.1250000E+03  0.7546771E-02  0.1126479E+00
        -11   -1    0    0    0    0  0.00000000000E+00  0.00000000000E+00  0.12500000000E+03  0.12500000000E+03  0.00000000000E+00 0.  1.
         11   -1    0    0    0    0 -0.00000000000E+00 -0.00000000000E+00 -0.12500000000E+03  0.12500000000E+03  0.00000000000E+00 0. -1.
         24    1    1    2    0    0  0.93746430880E+01  0.93489672521E+01  0.94776035599E+02  0.12500000000E+03  0.80419002446E+02 0.  1.
        -24    1    1    2    0    0 -0.93746430880E+01 -0.93489672521E+01 -0.94776035599E+02  0.12500000000E+03  0.80419002446E+02 0.  0.
</event>
<event>
 4    1  0.1590495E-001  0.1250000E+03  0.7546771E-02  0.1126479E+00
        -11   -1    0    0    0    0  0.00000000000E+00  0.00000000000E+00  0.12500000000E+03  0.12500000000E+03  0.00000000000E+00 0.  1.
         11   -1    0    0    0    0 -0.00000000000E+00 -0.00000000000E+00 -0.12500000000E+03  0.12500000000E+03  0.00000000000E+00 0. -1.
         24    1    1    2    0    0 -0.94667949657E+01 -0.43350899072E+02  0.84787165233E+02  0.12500000000E+03  0.80419002446E+02 0.  1.
        -24    1    1    2    0    0  0.94667949657E+01  0.43350899072E+02 -0.84787165233E+02  0.12500000000E+03  0.80419002446E+02 0. -1.
</event>
<event>
 4    1  0.1590495E-001  0.1250000E+03  0.7546771E-02  0.1126479E+00
        -11   -1    0    0    0    0  0.00000000000E+00  0.00000000000E+00  0.12500000000E+03  0.12500000000E+03  0.00000000000E+00 0.  1.
         11   -1    0    0    0    0 -0.00000000000E+00 -0.00000000000E+00 -0.12500000000E+03  0.12500000000E+03  0.00000000000E+00 0. -1.
         24    1    1    2    0    0 -0.27414609842E+02 -0.37734573142E+02  0.83560308776E+02  0.12500000000E+03  0.80419002446E+02 0.  1.
        -24    1    1    2    0    0  0.27414609842E+02  0.37734573142E+02 -0.83560308776E+02  0.12500000000E+03  0.80419002446E+02 0. -1.
</event>
<event>
 4    1  0.1590495E-001  0.1250000E+03  0.7546771E-02  0.1126479E+00
        -11   -1    0    0    0    0  0.00000000000E+00  0.00000000000E+00  0.12500000000E+03  0.12500000000E+03  0.00000000000E+00 0.  1.
         11   -1    0    0    0    0 -0.00000000000E+00 -0.00000000000E+00 -0.12500000000E+03  0.12500000000E+03  0.00000000000E+00 0. -1.
         24    1    1    2    0    0 -0.21264854582E+02 -0.69818154167E+02 -0.61895196534E+02  0.12500000000E+03  0.80419002446E+02 0. -1.
        -24    1    1    2    0    0  0.21264854582E+02  0.69818154167E+02  0.61895196534E+02  0.12500000000E+03  0.80419002446E+02 0.  1.
</event>
<event>
 4    1  0.1590495E-001  0.1250000E+03  0.7546771E-02  0.1126479E+00
        -11   -1    0    0    0    0  0.00000000000E+00  0.00000000000E+00  0.12500000000E+03  0.12500000000E+03  0.00000000000E+00 0.  1.
         11   -1    0    0    0    0 -0.00000000000E+00 -0.00000000000E+00 -0.12500000000E+03  0.12500000000E+03  0.00000000000E+00 0. -1.
         24    1    1    2    0    0 -0.48662352131E+02  0.39450505463E+02  0.72342360685E+02  0.12500000000E+03  0.80419002446E+02 0.  1.
        -24    1    1    2    0    0  0.48662352131E+02 -0.39450505463E+02 -0.72342360685E+02  0.12500000000E+03  0.80419002446E+02 0. -1.
</event>
<event>
 4    1  0.1590495E-001  0.1250000E+03  0.7546771E-02  0.1126479E+00
        -11   -1    0    0    0    0  0.00000000000E+00  0.00000000000E+00  0.12500000000E+03  0.12500000000E+03  0.00000000000E+00 0.  1.
         11   -1    0    0    0    0 -0.00000000000E+00 -0.00000000000E+00 -0.12500000000E+03  0.12500000000E+03  0.00000000000E+00 0. -1.
         24    1    1    2    0    0  0.20219905131E+02  0.38302267628E+02  0.85333907544E+02  0.12500000000E+03  0.80419002446E+02 0.  1.
        -24    1    1    2    0    0 -0.20219905131E+02 -0.38302267628E+02 -0.85333907544E+02  0.12500000000E+03  0.80419002446E+02 0. -1.
</event>
<event>
 4    1  0.1590495E-001  0.1250000E+03  0.7546771E-02  0.1126479E+00
        -11   -1    0    0    0    0  0.00000000000E+00  0.00000000000E+00  0.12500000000E+03  0.12500000000E+03  0.00000000000E+00 0.  1.
         11   -1    0    0    0    0 -0.00000000000E+00 -0.00000000000E+00 -0.12500000000E+03  0.12500000000E+03  0.00000000000E+00 0. -1.
         24    1    1    2    0    0 -0.84449820247E+01  0.10702816824E+01  0.95316949287E+02  0.12500000000E+03  0.80419002446E+02 0.  1.
        -24    1    1    2    0    0  0.84449820247E+01 -0.10702816824E+01 -0.95316949287E+02  0.12500000000E+03  0.80419002446E+02 0.  0.
</event>
<event>
 4    1  0.1590495E-001  0.1250000E+03  0.7546771E-02  0.1126479E+00
        -11   -1    0    0    0    0  0.00000000000E+00  0.00000000000E+00  0.12500000000E+03  0.12500000000E+03  0.00000000000E+00 0.  1.
         11   -1    0    0    0    0 -0.00000000000E+00 -0.00000000000E+00 -0.12500000000E+03  0.12500000000E+03  0.00000000000E+00 0. -1.
         24    1    1    2    0    0  0.20821354228E+02 -0.35836353481E+02  0.86255498508E+02  0.12500000000E+03  0.80419002446E+02 0.  1.
        -24    1    1    2    0    0 -0.20821354228E+02  0.35836353481E+02 -0.86255498508E+02  0.12500000000E+03  0.80419002446E+02 0. -1.
</event>
<event>
 4    1  0.1590495E-001  0.1250000E+03  0.7546771E-02  0.1126479E+00
        -11   -1    0    0    0    0  0.00000000000E+00  0.00000000000E+00  0.12500000000E+03  0.12500000000E+03  0.00000000000E+00 0.  1.
         11   -1    0    0    0    0 -0.00000000000E+00 -0.00000000000E+00 -0.12500000000E+03  0.12500000000E+03  0.00000000000E+00 0. -1.
         24    1    1    2    0    0  0.50725836859E+02  0.12592886652E+02  0.80162913659E+02  0.12500000000E+03  0.80419002446E+02 0.  1.
        -24    1    1    2    0    0 -0.50725836859E+02 -0.12592886652E+02 -0.80162913659E+02  0.12500000000E+03  0.80419002446E+02 0. -1.
</event>
<event>
 4    1  0.1590495E-001  0.1250000E+03  0.7546771E-02  0.1126479E+00
        -11   -1    0    0    0    0  0.00000000000E+00  0.00000000000E+00  0.12500000000E+03  0.12500000000E+03  0.00000000000E+00 0.  1.
         11   -1    0    0    0    0 -0.00000000000E+00 -0.00000000000E+00 -0.12500000000E+03  0.12500000000E+03  0.00000000000E+00 0. -1.
         24    1    1    2    0    0 -0.24114999993E+02  0.29739247292E+02  0.87703067173E+02  0.12500000000E+03  0.80419002446E+02 0.  1.
        -24    1    1    2    0    0  0.24114999993E+02 -0.29739247292E+02 -0.87703067173E+02  0.12500000000E+03  0.80419002446E+02 0. -1.
</event>
<event>
 4    1  0.1590495E-001  0.1250000E+03  0.7546771E-02  0.1126479E+00
        -11   -1    0    0    0    0  0.00000000000E+00  0.00000000000E+00  0.12500000000E+03  0.12500000000E+03  0.00000000000E+00 0.  1.
         11   -1    0    0    0    0 -0.00000000000E+00 -0.00000000000E+00 -0.12500000000E+03  0.12500000000E+03  0.00000000000E+00 0. -1.
         24    1    1    2    0    0  0.35916669713E+02  0.65563410886E+02  0.59742916194E+02  0.12500000000E+03  0.80419002446E+02 0.  1.
        -24    1    1    2    0    0 -0.35916669713E+02 -0.65563410886E+02 -0.59742916194E+02  0.12500000000E+03  0.80419002446E+02 0.  0.
</event>
<event>
 4    1  0.1590495E-001  0.1250000E+03  0.7546771E-02  0.1126479E+00
        -11   -1    0    0    0    0  0.00000000000E+00  0.00000000000E+00  0.12500000000E+03  0.12500000000E+03  0.00000000000E+00 0.  1.
         11   -1    0    0    0    0 -0.00000000000E+00 -0.00000000000E+00 -0.12500000000E+03  0.12500000000E+03  0.00000000000E+00 0. -1.
         24    1    1    2    0    0 -0.39294874371E+02  0.36939124518E+02  0.79051868881E+02  0.12500000000E+03  0.80419002446E+02 0.  1.
        -24    1    1    2    0    0  0.39294874371E+02 -0.36939124518E+02 -0.79051868881E+02  0.12500000000E+03  0.80419002446E+02 0. -1.
</event>
<event>
 4    1  0.1590495E-001  0.1250000E+03  0.7546771E-02  0.1126479E+00
        -11   -1    0    0    0    0  0.00000000000E+00  0.00000000000E+00  0.12500000000E+03  0.12500000000E+03  0.00000000000E+00 0.  1.
         11   -1    0    0    0    0 -0.00000000000E+00 -0.00000000000E+00 -0.12500000000E+03  0.12500000000E+03  0.00000000000E+00 0. -1.
         24    1    1    2    0    0 -0.87030203306E+02 -0.37284210400E+02  0.13907386995E+02  0.12500000000E+03  0.80419002446E+02 0.  1.
        -24    1    1    2    0    0  0.87030203306E+02  0.37284210400E+02 -0.13907386995E+02  0.12500000000E+03  0.80419002446E+02 0. -1.
</event>
<event>
 4    1  0.1590495E-001  0.1250000E+03  0.7546771E-02  0.1126479E+00
        -11   -1    0    0    0    0  0.00000000000E+00  0.00000000000E+00  0.12500000000E+03  0.12500000000E+03  0.00000000000E+00 0.  1.
         11   -1    0    0    0    0 -0.00000000000E+00 -0.00000000000E+00 -0.12500000000E+03  0.12500000000E+03  0.00000000000E+00 0. -1.
         24    1    1    2    0    0  0.44050305478E+01 -0.58624444677E+02  0.75508636842E+02  0.12500000000E+03  0.80419002446E+02 0.  1.
        -24    1    1    2    0    0 -0.44050305478E+01  0.58624444677E+02 -0.75508636842E+02  0.12500000000E+03  0.80419002446E+02 0. -1.
</event>
<event>
 4    1  0.1590495E-001  0.1250000E+03  0.7546771E-02  0.1126479E+00
        -11   -1    0    0    0    0  0.00000000000E+00  0.00000000000E+00  0.12500000000E+03  0.12500000000E+03  0.00000000000E+00 0.  1.
         11   -1    0    0    0    0 -0.00000000000E+00 -0.00000000000E+00 -0.12500000000E+03  0.12500000000E+03  0.00000000000E+00 0. -1.
         24    1    1    2    0    0  0.76433873186E+01 -0.31940205562E+02  0.89884291979E+02  0.12500000000E+03  0.80419002446E+02 0.  1.
        -24    1    1    2    0    0 -0.76433873186E+01  0.31940205562E+02 -0.89884291979E+02  0.12500000000E+03  0.80419002446E+02 0.  0.
</event>
<event>
 4    1  0.1590495E-001  0.1250000E+03  0.7546771E-02  0.1126479E+00
        -11   -1    0    0    0    0  0.00000000000E+00  0.00000000000E+00  0.12500000000E+03  0.12500000000E+03  0.00000000000E+00 0.  1.
         11   -1    0    0    0    0 -0.00000000000E+00 -0.00000000000E+00 -0.12500000000E+03  0.12500000000E+03  0.00000000000E+00 0. -1.
         24    1    1    2    0    0  0.69308890208E+02  0.87115003383E+01  0.65407733072E+02  0.12500000000E+03  0.80419002446E+02 0.  1.
        -24    1    1    2    0    0 -0.69308890208E+02 -0.87115003383E+01 -0.65407733072E+02  0.12500000000E+03  0.80419002446E+02 0. -1.
</event>
<event>
 4    1  0.1590495E-001  0.1250000E+03  0.7546771E-02  0.1126479E+00
        -11   -1    0    0    0    0  0.00000000000E+00  0.00000000000E+00  0.12500000000E+03  0.12500000000E+03  0.00000000000E+00 0.  1.
         11   -1    0    0    0    0 -0.00000000000E+00 -0.00000000000E+00 -0.12500000000E+03  0.12500000000E+03  0.00000000000E+00 0. -1.
         24    1    1    2    0    0  0.73590606173E+02 -0.41422244680E+02  0.45015601455E+02  0.12500000000E+03  0.80419002446E+02 0.  1.
        -24    1    1    2    0    0 -0.73590606173E+02  0.41422244680E+02 -0.45015601455E+02  0.12500000000E+03  0.80419002446E+02 0.  0.
</event>
<event>
 4    1  0.1590495E-001  0.1250000E+03  0.7546771E-02  0.1126479E+00
        -11   -1    0    0    0    0  0.00000000000E+00  0.00000000000E+00  0.12500000000E+03  0.12500000000E+03  0.00000000000E+00 0.  1.
         11   -1    0    0    0    0 -0.00000000000E+00 -0.00000000000E+00 -0.12500000000E+03  0.12500000000E+03  0.00000000000E+00 0. -1.
         24    1    1    2    0    0 -0.60566788115E+01 -0.25129269499E+02  0.92139136646E+02  0.12500000000E+03  0.80419002446E+02 0.  1.
        -24    1    1    2    0    0  0.60566788115E+01  0.25129269499E+02 -0.92139136646E+02  0.12500000000E+03  0.80419002446E+02 0. -1.
</event>
<event>
 4    1  0.1590495E-001  0.1250000E+03  0.7546771E-02  0.1126479E+00
        -11   -1    0    0    0    0  0.00000000000E+00  0.00000000000E+00  0.12500000000E+03  0.12500000000E+03  0.00000000000E+00 0.  1.
         11   -1    0    0    0    0 -0.00000000000E+00 -0.00000000000E+00 -0.12500000000E+03  0.12500000000E+03  0.00000000000E+00 0. -1.
         24    1    1    2    0    0  0.31946582882E+02 -0.72741296641E+02  0.53347011638E+02  0.12500000000E+03  0.80419002446E+02 0.  1.
        -24    1    1    2    0    0 -0.31946582882E+02  0.72741296641E+02 -0.53347011638E+02  0.12500000000E+03  0.80419002446E+02 0. -1.
</event>
<event>
 4    1  0.1590495E-001  0.1250000E+03  0.7546771E-02  0.1126479E+00
        -11   -1    0    0    0    0  0.00000000000E+00  0.00000000000E+00  0.12500000000E+03  0.12500000000E+03  0.00000000000E+00 0.  1.
         11   -1    0    0    0    0 -0.00000000000E+00 -0.00000000000E+00 -0.12500000000E+03  0.12500000000E+03  0.00000000000E+00 0. -1.
         24    1    1    2    0    0  0.57596855301E+01  0.57425910489E+02  0.76333969323E+02  0.12500000000E+03  0.80419002446E+02 0.  1.
        -24    1    1    2    0    0 -0.57596855301E+01 -0.57425910489E+02 -0.76333969323E+02  0.12500000000E+03  0.80419002446E+02 0. -1.
</event>
<event>
 4    1  0.1590495E-001  0.1250000E+03  0.7546771E-02  0.1126479E+00
        -11   -1    0    0    0    0  0.00000000000E+00  0.00000000000E+00  0.12500000000E+03  0.12500000000E+03  0.00000000000E+00 0.  1.
         11   -1    0    0    0    0 -0.00000000000E+00 -0.00000000000E+00 -0.12500000000E+03  0.12500000000E+03  0.00000000000E+00 0. -1.
         24    1    1    2    0    0 -0.41887068055E+02 -0.81457210846E+02  0.27712458870E+02  0.12500000000E+03  0.80419002446E+02 0.  1.
        -24    1    1    2    0    0  0.41887068055E+02  0.81457210846E+02 -0.27712458870E+02  0.12500000000E+03  0.80419002446E+02 0. -1.
</event>
<event>
 4    1  0.1590495E-001  0.1250000E+03  0.7546771E-02  0.1126479E+00
        -11   -1    0    0    0    0  0.00000000000E+00  0.00000000000E+00  0.12500000000E+03  0.12500000000E+03  0.00000000000E+00 0.  1.
         11   -1    0    0    0    0 -0.00000000000E+00 -0.00000000000E+00 -0.12500000000E+03  0.12500000000E+03  0.00000000000E+00 0. -1.
         24    1    1    2    0    0 -0.20352750933E+02  0.42534067168E+01  0.93410160616E+02  0.12500000000E+03  0.80419002446E+02 0.  1.
        -24    1    1    2    0    0  0.20352750933E+02 -0.42534067168E+01 -0.93410160616E+02  0.12500000000E+03  0.80419002446E+02 0. -1.
</event>
<event>
 4    1  0.1590495E-001  0.1250000E+03  0.7546771E-02  0.1126479E+00
        -11   -1    0    0    0    0  0.00000000000E+00  0.00000000000E+00  0.12500000000E+03  0.12500000000E+03  0.00000000000E+00 0.  1.
         11   -1    0    0    0    0 -0.00000000000E+00 -0.00000000000E+00 -0.12500000000E+03  0.12500000000E+03  0.00000000000E+00 0. -1.
         24    1    1    2    0    0 -0.20183022205E+02 -0.18515976019E+02  0.91692902083E+02  0.12500000000E+03  0.80419002446E+02 0.  1.
        -24    1    1    2    0    0  0.20183022205E+02  0.18515976019E+02 -0.91692902083E+02  0.12500000000E+03  0.80419002446E+02 0. -1.
</event>
<event>
 4    1  0.1590495E-001  0.1250000E+03  0.7546771E-02  0.1126479E+00
        -11   -1    0    0    0    0  0.00000000000E+00  0.00000000000E+00  0.12500000000E+03  0.12500000000E+03  0.00000000000E+00 0.  1.
         11   -1    0    0    0    0 -0.00000000000E+00 -0.00000000000E+00 -0.12500000000E+03  0.12500000000E+03  0.00000000000E+00 0. -1.
         24    1    1    2    0    0  0.15155087735E+02 -0.67857439062E+01  0.94244687071E+02  0.12500000000E+03  0.80419002446E+02 0.  0.
        -24    1    1    2    0    0 -0.15155087735E+02  0.67857439062E+01 -0.94244687071E+02  0.12500000000E+03  0.80419002446E+02 0. -1.
</event>
<event>
 4    1  0.1590495E-001  0.1250000E+03  0.7546771E-02  0.1126479E+00
        -11   -1    0    0    0    0  0.00000000000E+00  0.00000000000E+00  0.12500000000E+03  0.12500000000E+03  0.00000000000E+00 0.  1.
         11   -1    0    0    0    0 -0.00000000000E+00 -0.00000000000E+00 -0.12500000000E+03  0.12500000000E+03  0.00000000000E+00 0. -1.
         24    1    1    2    0    0 -0.10832552948E+02 -0.67516271777E+02  0.66947687694E+02  0.12500000000E+03  0.80419002446E+02 0.  1.
        -24    1    1    2    0    0  0.10832552948E+02  0.67516271777E+02 -0.66947687694E+02  0.12500000000E+03  0.80419002446E+02 0. -1.
</event>
<event>
 4    1  0.1590495E-001  0.1250000E+03  0.7546771E-02  0.1126479E+00
        -11   -1    0    0    0    0  0.00000000000E+00  0.00000000000E+00  0.12500000000E+03  0.12500000000E+03  0.00000000000E+00 0.  1.
         11   -1    0    0    0    0 -0.00000000000E+00 -0.00000000000E+00 -0.12500000000E+03  0.12500000000E+03  0.00000000000E+00 0. -1.
         24    1    1    2    0    0  0.71493070725E+02  0.17344325322E+02  0.61202118125E+02  0.12500000000E+03  0.80419002446E+02 0.  1.
        -24    1    1    2    0    0 -0.71493070725E+02 -0.17344325322E+02 -0.61202118125E+02  0.12500000000E+03  0.80419002446E+02 0. -1.
</event>
<event>
 4    1  0.1590495E-001  0.1250000E+03  0.7546771E-02  0.1126479E+00
        -11   -1    0    0    0    0  0.00000000000E+00  0.00000000000E+00  0.12500000000E+03  0.12500000000E+03  0.00000000000E+00 0.  1.
         11   -1    0    0    0    0 -0.00000000000E+00 -0.00000000000E+00 -0.12500000000E+03  0.12500000000E+03  0.00000000000E+00 0. -1.
         24    1    1    2    0    0  0.20252504316E+01 -0.28967003031E+02  0.91184401855E+02  0.12500000000E+03  0.80419002446E+02 0.  0.
        -24    1    1    2    0    0 -0.20252504316E+01  0.28967003031E+02 -0.91184401855E+02  0.12500000000E+03  0.80419002446E+02 0.  0.
</event>
<event>
 4    1  0.1590495E-001  0.1250000E+03  0.7546771E-02  0.1126479E+00
        -11   -1    0    0    0    0  0.00000000000E+00  0.00000000000E+00  0.12500000000E+03  0.12500000000E+03  0.00000000000E+00 0.  1.
         11   -1    0    0    0    0 -0.00000000000E+00 -0.00000000000E+00 -0.12500000000E+03  0.12500000000E+03  0.00000000000E+00 0. -1.
         24    1    1    2    0    0 -0.30875177836E+02  0.17089935757E+02  0.88951905742E+02  0.12500000000E+03  0.80419002446E+02 0.  1.
        -24    1    1    2    0    0  0.30875177836E+02 -0.17089935757E+02 -0.88951905742E+02  0.12500000000E+03  0.80419002446E+02 0. -1.
</event>
<event>
 4    1  0.1590495E-001  0.1250000E+03  0.7546771E-02  0.1126479E+00
        -11   -1    0    0    0    0  0.00000000000E+00  0.00000000000E+00  0.12500000000E+03  0.12500000000E+03  0.00000000000E+00 0.  1.
         11   -1    0    0    0    0 -0.00000000000E+00 -0.00000000000E+00 -0.12500000000E+03  0.12500000000E+03  0.00000000000E+00 0. -1.
         24    1    1    2    0    0 -0.14728706301E+02  0.11585715751E+02  0.93843595662E+02  0.12500000000E+03  0.80419002446E+02 0.  1.
        -24    1    1    2    0    0  0.14728706301E+02 -0.11585715751E+02 -0.93843595662E+02  0.12500000000E+03  0.80419002446E+02 0. -1.
</event>
<event>
 4    1  0.1590495E-001  0.1250000E+03  0.7546771E-02  0.1126479E+00
        -11   -1    0    0    0    0  0.00000000000E+00  0.00000000000E+00  0.12500000000E+03  0.12500000000E+03  0.00000000000E+00 0.  1.
         11   -1    0    0    0    0 -0.00000000000E+00 -0.00000000000E+00 -0.12500000000E+03  0.12500000000E+03  0.00000000000E+00 0. -1.
         24    1    1    2    0    0  0.21340777178E+02 -0.23867339100E+01  0.93255877972E+02  0.12500000000E+03  0.80419002446E+02 0.  1.
        -24    1    1    2    0    0 -0.21340777178E+02  0.23867339100E+01 -0.93255877972E+02  0.12500000000E+03  0.80419002446E+02 0. -1.
</event>
<event>
 4    1  0.1590495E-001  0.1250000E+03  0.7546771E-02  0.1126479E+00
        -11   -1    0    0    0    0  0.00000000000E+00  0.00000000000E+00  0.12500000000E+03  0.12500000000E+03  0.00000000000E+00 0.  1.
         11   -1    0    0    0    0 -0.00000000000E+00 -0.00000000000E+00 -0.12500000000E+03  0.12500000000E+03  0.00000000000E+00 0. -1.
         24    1    1    2    0    0 -0.15783558765E+02  0.62246179235E+02 -0.70951226127E+02  0.12500000000E+03  0.80419002446E+02 0.  0.
        -24    1    1    2    0    0  0.15783558765E+02 -0.62246179235E+02  0.70951226127E+02  0.12500000000E+03  0.80419002446E+02 0.  0.
</event>
<event>
 4    1  0.1590495E-001  0.1250000E+03  0.7546771E-02  0.1126479E+00
        -11   -1    0    0    0    0  0.00000000000E+00  0.00000000000E+00  0.12500000000E+03  0.12500000000E+03  0.00000000000E+00 0.  1.
         11   -1    0    0    0    0 -0.00000000000E+00 -0.00000000000E+00 -0.12500000000E+03  0.12500000000E+03  0.00000000000E+00 0. -1.
         24    1    1    2    0    0  0.12797657031E+01  0.14993910039E+02  0.94505708331E+02  0.12500000000E+03  0.80419002446E+02 0.  1.
        -24    1    1    2    0    0 -0.12797657031E+01 -0.14993910039E+02 -0.94505708331E+02  0.12500000000E+03  0.80419002446E+02 0. -1.
</event>
<event>
 4    1  0.1590495E-001  0.1250000E+03  0.7546771E-02  0.1126479E+00
        -11   -1    0    0    0    0  0.00000000000E+00  0.00000000000E+00  0.12500000000E+03  0.12500000000E+03  0.00000000000E+00 0.  1.
         11   -1    0    0    0    0 -0.00000000000E+00 -0.00000000000E+00 -0.12500000000E+03  0.12500000000E+03  0.00000000000E+00 0. -1.
         24    1    1    2    0    0 -0.12839640206E+02 -0.18073979548E+02  0.93092743801E+02  0.12500000000E+03  0.80419002446E+02 0.  1.
        -24    1    1    2    0    0  0.12839640206E+02  0.18073979548E+02 -0.93092743801E+02  0.12500000000E+03  0.80419002446E+02 0. -1.
</event>
<event>
 4    1  0.1590495E-001  0.1250000E+03  0.7546771E-02  0.1126479E+00
        -11   -1    0    0    0    0  0.00000000000E+00  0.00000000000E+00  0.12500000000E+03  0.12500000000E+03  0.00000000000E+00 0.  1.
         11   -1    0    0    0    0 -0.00000000000E+00 -0.00000000000E+00 -0.12500000000E+03  0.12500000000E+03  0.00000000000E+00 0. -1.
         24    1    1    2    0    0  0.14188079155E+02 -0.27189439121E+02  0.90648865717E+02  0.12500000000E+03  0.80419002446E+02 0.  1.
        -24    1    1    2    0    0 -0.14188079155E+02  0.27189439121E+02 -0.90648865717E+02  0.12500000000E+03  0.80419002446E+02 0. -1.
</event>
<event>
 4    1  0.1590495E-001  0.1250000E+03  0.7546771E-02  0.1126479E+00
        -11   -1    0    0    0    0  0.00000000000E+00  0.00000000000E+00  0.12500000000E+03  0.12500000000E+03  0.00000000000E+00 0.  1.
         11   -1    0    0    0    0 -0.00000000000E+00 -0.00000000000E+00 -0.12500000000E+03  0.12500000000E+03  0.00000000000E+00 0. -1.
         24    1    1    2    0    0 -0.80203666282E+02 -0.50733444503E+02 -0.12299332074E+02  0.12500000000E+03  0.80419002446E+02 0.  0.
        -24    1    1    2    0    0  0.80203666282E+02  0.50733444503E+02  0.12299332074E+02  0.12500000000E+03  0.80419002446E+02 0. -1.
</event>
<event>
 4    1  0.1590495E-001  0.1250000E+03  0.7546771E-02  0.1126479E+00
        -11   -1    0    0    0    0  0.00000000000E+00  0.00000000000E+00  0.12500000000E+03  0.12500000000E+03  0.00000000000E+00 0.  1.
         11   -1    0    0    0    0 -0.00000000000E+00 -0.00000000000E+00 -0.12500000000E+03  0.12500000000E+03  0.00000000000E+00 0. -1.
         24    1    1    2    0    0 -0.89444204305E+02 -0.30658060201E+02  0.14751328980E+02  0.12500000000E+03  0.80419002446E+02 0. -1.
        -24    1    1    2    0    0  0.89444204305E+02  0.30658060201E+02 -0.14751328980E+02  0.12500000000E+03  0.80419002446E+02 0.  1.
</event>
<event>
 4    1  0.1590495E-001  0.1250000E+03  0.7546771E-02  0.1126479E+00
        -11   -1    0    0    0    0  0.00000000000E+00  0.00000000000E+00  0.12500000000E+03  0.12500000000E+03  0.00000000000E+00 0.  1.
         11   -1    0    0    0    0 -0.00000000000E+00 -0.00000000000E+00 -0.12500000000E+03  0.12500000000E+03  0.00000000000E+00 0. -1.
         24    1    1    2    0    0  0.51202149227E+02 -0.80798059288E+02  0.27924139065E+01  0.12500000000E+03  0.80419002446E+02 0. -1.
        -24    1    1    2    0    0 -0.51202149227E+02  0.80798059288E+02 -0.27924139065E+01  0.12500000000E+03  0.80419002446E+02 0.  1.
</event>
<event>
 4    1  0.1590495E-001  0.1250000E+03  0.7546771E-02  0.1126479E+00
        -11   -1    0    0    0    0  0.00000000000E+00  0.00000000000E+00  0.12500000000E+03  0.12500000000E+03  0.00000000000E+00 0.  1.
         11   -1    0    0    0    0 -0.00000000000E+00 -0.00000000000E+00 -0.12500000000E+03  0.12500000000E+03  0.00000000000E+00 0. -1.
         24    1    1    2    0    0  0.74901467203E+02  0.59535637408E+02 -0.17498956888E+01  0.12500000000E+03  0.80419002446E+02 0.  1.
        -24    1    1    2    0    0 -0.74901467203E+02 -0.59535637408E+02  0.17498956888E+01  0.12500000000E+03  0.80419002446E+02 0. -1.
</event>
<event>
 4    1  0.1590495E-001  0.1250000E+03  0.7546771E-02  0.1126479E+00
        -11   -1    0    0    0    0  0.00000000000E+00  0.00000000000E+00  0.12500000000E+03  0.12500000000E+03  0.00000000000E+00 0.  1.
         11   -1    0    0    0    0 -0.00000000000E+00 -0.00000000000E+00 -0.12500000000E+03  0.12500000000E+03  0.00000000000E+00 0. -1.
         24    1    1    2    0    0 -0.40700939102E+02 -0.36125805258E+02  0.78715588013E+02  0.12500000000E+03  0.80419002446E+02 0.  1.
        -24    1    1    2    0    0  0.40700939102E+02  0.36125805258E+02 -0.78715588013E+02  0.12500000000E+03  0.80419002446E+02 0. -1.
</event>
<event>
 4    1  0.1590495E-001  0.1250000E+03  0.7546771E-02  0.1126479E+00
        -11   -1    0    0    0    0  0.00000000000E+00  0.00000000000E+00  0.12500000000E+03  0.12500000000E+03  0.00000000000E+00 0.  1.
         11   -1    0    0    0    0 -0.00000000000E+00 -0.00000000000E+00 -0.12500000000E+03  0.12500000000E+03  0.00000000000E+00 0. -1.
         24    1    1    2    0    0 -0.56163637528E+02 -0.45024162540E+02  0.63057550323E+02  0.12500000000E+03  0.80419002446E+02 0.  1.
        -24    1    1    2    0    0  0.56163637528E+02  0.45024162540E+02 -0.63057550323E+02  0.12500000000E+03  0.80419002446E+02 0. -1.
</event>
<event>
 4    1  0.1590495E-001  0.1250000E+03  0.7546771E-02  0.1126479E+00
        -11   -1    0    0    0    0  0.00000000000E+00  0.00000000000E+00  0.12500000000E+03  0.12500000000E+03  0.00000000000E+00 0.  1.
         11   -1    0    0    0    0 -0.00000000000E+00 -0.00000000000E+00 -0.12500000000E+03  0.12500000000E+03  0.00000000000E+00 0. -1.
         24    1    1    2    0    0 -0.55485332635E+02  0.49851292267E+02 -0.59950067283E+02  0.12500000000E+03  0.80419002446E+02 0.  0.
        -24    1    1    2    0    0  0.55485332635E+02 -0.49851292267E+02  0.59950067283E+02  0.12500000000E+03  0.80419002446E+02 0.  0.
</event>
<event>
 4    1  0.1590495E-001  0.1250000E+03  0.7546771E-02  0.1126479E+00
        -11   -1    0    0    0    0  0.00000000000E+00  0.00000000000E+00  0.12500000000E+03  0.12500000000E+03  0.00000000000E+00 0.  1.
         11   -1    0    0    0    0 -0.00000000000E+00 -0.00000000000E+00 -0.12500000000E+03  0.12500000000E+03  0.00000000000E+00 0. -1.
         24    1    1    2    0    0  0.88899361164E+02 -0.44301206534E+01  0.35143444071E+02  0.12500000000E+03  0.80419002446E+02 0.  1.
        -24    1    1    2    0    0 -0.88899361164E+02  0.44301206534E+01 -0.35143444071E+02  0.12500000000E+03  0.80419002446E+02 0. -1.
</event>
<event>
 4    1  0.1590495E-001  0.1250000E+03  0.7546771E-02  0.1126479E+00
        -11   -1    0    0    0    0  0.00000000000E+00  0.00000000000E+00  0.12500000000E+03  0.12500000000E+03  0.00000000000E+00 0.  1.
         11   -1    0    0    0    0 -0.00000000000E+00 -0.00000000000E+00 -0.12500000000E+03  0.12500000000E+03  0.00000000000E+00 0. -1.
         24    1    1    2    0    0 -0.23349565055E+02  0.25404956268E+02  0.89259005453E+02  0.12500000000E+03  0.80419002446E+02 0.  1.
        -24    1    1    2    0    0  0.23349565055E+02 -0.25404956268E+02 -0.89259005453E+02  0.12500000000E+03  0.80419002446E+02 0. -1.
</event>
<event>
 4    1  0.1590495E-001  0.1250000E+03  0.7546771E-02  0.1126479E+00
        -11   -1    0    0    0    0  0.00000000000E+00  0.00000000000E+00  0.12500000000E+03  0.12500000000E+03  0.00000000000E+00 0.  1.
         11   -1    0    0    0    0 -0.00000000000E+00 -0.00000000000E+00 -0.12500000000E+03  0.12500000000E+03  0.00000000000E+00 0. -1.
         24    1    1    2    0    0 -0.11979255733E+02  0.19870047574E+02  0.92841061428E+02  0.12500000000E+03  0.80419002446E+02 0.  0.
        -24    1    1    2    0    0  0.11979255733E+02 -0.19870047574E+02 -0.92841061428E+02  0.12500000000E+03  0.80419002446E+02 0. -1.
</event>
<event>
 4    1  0.1590495E-001  0.1250000E+03  0.7546771E-02  0.1126479E+00
        -11   -1    0    0    0    0  0.00000000000E+00  0.00000000000E+00  0.12500000000E+03  0.12500000000E+03  0.00000000000E+00 0.  1.
         11   -1    0    0    0    0 -0.00000000000E+00 -0.00000000000E+00 -0.12500000000E+03  0.12500000000E+03  0.00000000000E+00 0. -1.
         24    1    1    2    0    0 -0.46140680106E+02 -0.33409396482E+02  0.76893653260E+02  0.12500000000E+03  0.80419002446E+02 0.  1.
        -24    1    1    2    0    0  0.46140680106E+02  0.33409396482E+02 -0.76893653260E+02  0.12500000000E+03  0.80419002446E+02 0. -1.
</event>
<event>
 4    1  0.1590495E-001  0.1250000E+03  0.7546771E-02  0.1126479E+00
        -11   -1    0    0    0    0  0.00000000000E+00  0.00000000000E+00  0.12500000000E+03  0.12500000000E+03  0.00000000000E+00 0.  1.
         11   -1    0    0    0    0 -0.00000000000E+00 -0.00000000000E+00 -0.12500000000E+03  0.12500000000E+03  0.00000000000E+00 0. -1.
         24    1    1    2    0    0  0.23982190554E+02  0.97874137656E+01  0.92124074561E+02  0.12500000000E+03  0.80419002446E+02 0.  1.
        -24    1    1    2    0    0 -0.23982190554E+02 -0.97874137656E+01 -0.92124074561E+02  0.12500000000E+03  0.80419002446E+02 0. -1.
</event>
<event>
 4    1  0.1590495E-001  0.1250000E+03  0.7546771E-02  0.1126479E+00
        -11   -1    0    0    0    0  0.00000000000E+00  0.00000000000E+00  0.12500000000E+03  0.12500000000E+03  0.00000000000E+00 0.  1.
         11   -1    0    0    0    0 -0.00000000000E+00 -0.00000000000E+00 -0.12500000000E+03  0.12500000000E+03  0.00000000000E+00 0. -1.
         24    1    1    2    0    0  0.40008701443E+02  0.48843870515E+01  0.86794185390E+02  0.12500000000E+03  0.80419002446E+02 0.  1.
        -24    1    1    2    0    0 -0.40008701443E+02 -0.48843870515E+01 -0.86794185390E+02  0.12500000000E+03  0.80419002446E+02 0. -1.
</event>
<event>
 4    1  0.1590495E-001  0.1250000E+03  0.7546771E-02  0.1126479E+00
        -11   -1    0    0    0    0  0.00000000000E+00  0.00000000000E+00  0.12500000000E+03  0.12500000000E+03  0.00000000000E+00 0.  1.
         11   -1    0    0    0    0 -0.00000000000E+00 -0.00000000000E+00 -0.12500000000E+03  0.12500000000E+03  0.00000000000E+00 0. -1.
         24    1    1    2    0    0 -0.87474920174E+02  0.19783383389E+02  0.33384728962E+02  0.12500000000E+03  0.80419002446E+02 0.  1.
        -24    1    1    2    0    0  0.87474920174E+02 -0.19783383389E+02 -0.33384728962E+02  0.12500000000E+03  0.80419002446E+02 0. -1.
</event>
<event>
 4    1  0.1590495E-001  0.1250000E+03  0.7546771E-02  0.1126479E+00
        -11   -1    0    0    0    0  0.00000000000E+00  0.00000000000E+00  0.12500000000E+03  0.12500000000E+03  0.00000000000E+00 0.  1.
         11   -1    0    0    0    0 -0.00000000000E+00 -0.00000000000E+00 -0.12500000000E+03  0.12500000000E+03  0.00000000000E+00 0. -1.
         24    1    1    2    0    0 -0.13026756343E+02  0.48661178455E+02  0.81364472444E+02  0.12500000000E+03  0.80419002446E+02 0.  1.
        -24    1    1    2    0    0  0.13026756343E+02 -0.48661178455E+02 -0.81364472444E+02  0.12500000000E+03  0.80419002446E+02 0. -1.
</event>
<event>
 4    1  0.1590495E-001  0.1250000E+03  0.7546771E-02  0.1126479E+00
        -11   -1    0    0    0    0  0.00000000000E+00  0.00000000000E+00  0.12500000000E+03  0.12500000000E+03  0.00000000000E+00 0.  1.
         11   -1    0    0    0    0 -0.00000000000E+00 -0.00000000000E+00 -0.12500000000E+03  0.12500000000E+03  0.00000000000E+00 0. -1.
         24    1    1    2    0    0 -0.40789471517E+02  0.62163491191E+02  0.60247020025E+02  0.12500000000E+03  0.80419002446E+02 0.  1.
        -24    1    1    2    0    0  0.40789471517E+02 -0.62163491191E+02 -0.60247020025E+02  0.12500000000E+03  0.80419002446E+02 0. -1.
</event>
<event>
 4    1  0.1590495E-001  0.1250000E+03  0.7546771E-02  0.1126479E+00
        -11   -1    0    0    0    0  0.00000000000E+00  0.00000000000E+00  0.12500000000E+03  0.12500000000E+03  0.00000000000E+00 0.  1.
         11   -1    0    0    0    0 -0.00000000000E+00 -0.00000000000E+00 -0.12500000000E+03  0.12500000000E+03  0.00000000000E+00 0. -1.
         24    1    1    2    0    0 -0.15766775102E+02 -0.30920843825E+02  0.89180122593E+02  0.12500000000E+03  0.80419002446E+02 0.  1.
        -24    1    1    2    0    0  0.15766775102E+02  0.30920843825E+02 -0.89180122593E+02  0.12500000000E+03  0.80419002446E+02 0. -1.
</event>
<event>
 4    1  0.1590495E-001  0.1250000E+03  0.7546771E-02  0.1126479E+00
        -11   -1    0    0    0    0  0.00000000000E+00  0.00000000000E+00  0.12500000000E+03  0.12500000000E+03  0.00000000000E+00 0.  1.
         11   -1    0    0    0    0 -0.00000000000E+00 -0.00000000000E+00 -0.12500000000E+03  0.12500000000E+03  0.00000000000E+00 0. -1.
         24    1    1    2    0    0  0.17179191851E+02 -0.10628696337E+02  0.93539778849E+02  0.12500000000E+03  0.80419002446E+02 0.  0.
        -24    1    1    2    0    0 -0.17179191851E+02  0.10628696337E+02 -0.93539778849E+02  0.12500000000E+03  0.80419002446E+02 0. -1.
</event>
<event>
 4    1  0.1590495E-001  0.1250000E+03  0.7546771E-02  0.1126479E+00
        -11   -1    0    0    0    0  0.00000000000E+00  0.00000000000E+00  0.12500000000E+03  0.12500000000E+03  0.00000000000E+00 0.  1.
         11   -1    0    0    0    0 -0.00000000000E+00 -0.00000000000E+00 -0.12500000000E+03  0.12500000000E+03  0.00000000000E+00 0. -1.
         24    1    1    2    0    0 -0.19647540443E+02 -0.92444647201E+02  0.15024826258E+02  0.12500000000E+03  0.80419002446E+02 0.  0.
        -24    1    1    2    0    0  0.19647540443E+02  0.92444647201E+02 -0.15024826258E+02  0.12500000000E+03  0.80419002446E+02 0. -1.
</event>
<event>
 4    1  0.1590495E-001  0.1250000E+03  0.7546771E-02  0.1126479E+00
        -11   -1    0    0    0    0  0.00000000000E+00  0.00000000000E+00  0.12500000000E+03  0.12500000000E+03  0.00000000000E+00 0.  1.
         11   -1    0    0    0    0 -0.00000000000E+00 -0.00000000000E+00 -0.12500000000E+03  0.12500000000E+03  0.00000000000E+00 0. -1.
         24    1    1    2    0    0 -0.68811380968E+02 -0.37286899551E+02  0.55067821972E+02  0.12500000000E+03  0.80419002446E+02 0.  1.
        -24    1    1    2    0    0  0.68811380968E+02  0.37286899551E+02 -0.55067821972E+02  0.12500000000E+03  0.80419002446E+02 0. -1.
</event>
<event>
 4    1  0.1590495E-001  0.1250000E+03  0.7546771E-02  0.1126479E+00
        -11   -1    0    0    0    0  0.00000000000E+00  0.00000000000E+00  0.12500000000E+03  0.12500000000E+03  0.00000000000E+00 0.  1.
         11   -1    0    0    0    0 -0.00000000000E+00 -0.00000000000E+00 -0.12500000000E+03  0.12500000000E+03  0.00000000000E+00 0. -1.
         24    1    1    2    0    0 -0.60339004096E+02 -0.26391667554E+02  0.69429593936E+02  0.12500000000E+03  0.80419002446E+02 0.  1.
        -24    1    1    2    0    0  0.60339004096E+02  0.26391667554E+02 -0.69429593936E+02  0.12500000000E+03  0.80419002446E+02 0. -1.
</event>
<event>
 4    1  0.1590495E-001  0.1250000E+03  0.7546771E-02  0.1126479E+00
        -11   -1    0    0    0    0  0.00000000000E+00  0.00000000000E+00  0.12500000000E+03  0.12500000000E+03  0.00000000000E+00 0.  1.
         11   -1    0    0    0    0 -0.00000000000E+00 -0.00000000000E+00 -0.12500000000E+03  0.12500000000E+03  0.00000000000E+00 0. -1.
         24    1    1    2    0    0 -0.52706466549E+02  0.30085249817E+02  0.73991149288E+02  0.12500000000E+03  0.80419002446E+02 0.  1.
        -24    1    1    2    0    0  0.52706466549E+02 -0.30085249817E+02 -0.73991149288E+02  0.12500000000E+03  0.80419002446E+02 0. -1.
</event>
<event>
 4    1  0.1590495E-001  0.1250000E+03  0.7546771E-02  0.1126479E+00
        -11   -1    0    0    0    0  0.00000000000E+00  0.00000000000E+00  0.12500000000E+03  0.12500000000E+03  0.00000000000E+00 0.  1.
         11   -1    0    0    0    0 -0.00000000000E+00 -0.00000000000E+00 -0.12500000000E+03  0.12500000000E+03  0.00000000000E+00 0. -1.
         24    1    1    2    0    0  0.78541389117E+01 -0.41214261265E+01  0.95284365949E+02  0.12500000000E+03  0.80419002446E+02 0.  0.
        -24    1    1    2    0    0 -0.78541389117E+01  0.41214261265E+01 -0.95284365949E+02  0.12500000000E+03  0.80419002446E+02 0. -1.
</event>
<event>
 4    1  0.1590495E-001  0.1250000E+03  0.7546771E-02  0.1126479E+00
        -11   -1    0    0    0    0  0.00000000000E+00  0.00000000000E+00  0.12500000000E+03  0.12500000000E+03  0.00000000000E+00 0.  1.
         11   -1    0    0    0    0 -0.00000000000E+00 -0.00000000000E+00 -0.12500000000E+03  0.12500000000E+03  0.00000000000E+00 0. -1.
         24    1    1    2    0    0  0.31640309234E+02  0.19642529100E+02  0.88152401713E+02  0.12500000000E+03  0.80419002446E+02 0.  1.
        -24    1    1    2    0    0 -0.31640309234E+02 -0.19642529100E+02 -0.88152401713E+02  0.12500000000E+03  0.80419002446E+02 0. -1.
</event>
<event>
 4    1  0.1590495E-001  0.1250000E+03  0.7546771E-02  0.1126479E+00
        -11   -1    0    0    0    0  0.00000000000E+00  0.00000000000E+00  0.12500000000E+03  0.12500000000E+03  0.00000000000E+00 0.  1.
         11   -1    0    0    0    0 -0.00000000000E+00 -0.00000000000E+00 -0.12500000000E+03  0.12500000000E+03  0.00000000000E+00 0. -1.
         24    1    1    2    0    0  0.48579440978E+02 -0.84454402614E+01  0.82015221140E+02  0.12500000000E+03  0.80419002446E+02 0.  1.
        -24    1    1    2    0    0 -0.48579440978E+02  0.84454402614E+01 -0.82015221140E+02  0.12500000000E+03  0.80419002446E+02 0. -1.
</event>
<event>
 4    1  0.1590495E-001  0.1250000E+03  0.7546771E-02  0.1126479E+00
        -11   -1    0    0    0    0  0.00000000000E+00  0.00000000000E+00  0.12500000000E+03  0.12500000000E+03  0.00000000000E+00 0.  1.
         11   -1    0    0    0    0 -0.00000000000E+00 -0.00000000000E+00 -0.12500000000E+03  0.12500000000E+03  0.00000000000E+00 0. -1.
         24    1    1    2    0    0 -0.11757614869E+02 -0.11690206331E+02  0.94249040389E+02  0.12500000000E+03  0.80419002446E+02 0.  0.
        -24    1    1    2    0    0  0.11757614869E+02  0.11690206331E+02 -0.94249040389E+02  0.12500000000E+03  0.80419002446E+02 0. -1.
</event>
<event>
 4    1  0.1590495E-001  0.1250000E+03  0.7546771E-02  0.1126479E+00
        -11   -1    0    0    0    0  0.00000000000E+00  0.00000000000E+00  0.12500000000E+03  0.12500000000E+03  0.00000000000E+00 0.  1.
         11   -1    0    0    0    0 -0.00000000000E+00 -0.00000000000E+00 -0.12500000000E+03  0.12500000000E+03  0.00000000000E+00 0. -1.
         24    1    1    2    0    0  0.33271463435E+02 -0.14115540844E+01  0.89715111779E+02  0.12500000000E+03  0.80419002446E+02 0.  1.
        -24    1    1    2    0    0 -0.33271463435E+02  0.14115540844E+01 -0.89715111779E+02  0.12500000000E+03  0.80419002446E+02 0. -1.
</event>
<event>
 4    1  0.1590495E-001  0.1250000E+03  0.7546771E-02  0.1126479E+00
        -11   -1    0    0    0    0  0.00000000000E+00  0.00000000000E+00  0.12500000000E+03  0.12500000000E+03  0.00000000000E+00 0.  1.
         11   -1    0    0    0    0 -0.00000000000E+00 -0.00000000000E+00 -0.12500000000E+03  0.12500000000E+03  0.00000000000E+00 0. -1.
         24    1    1    2    0    0 -0.75316165049E+02 -0.57793952041E+02  0.12046511337E+02  0.12500000000E+03  0.80419002446E+02 0.  1.
        -24    1    1    2    0    0  0.75316165049E+02  0.57793952041E+02 -0.12046511337E+02  0.12500000000E+03  0.80419002446E+02 0. -1.
</event>
<event>
 4    1  0.1590495E-001  0.1250000E+03  0.7546771E-02  0.1126479E+00
        -11   -1    0    0    0    0  0.00000000000E+00  0.00000000000E+00  0.12500000000E+03  0.12500000000E+03  0.00000000000E+00 0.  1.
         11   -1    0    0    0    0 -0.00000000000E+00 -0.00000000000E+00 -0.12500000000E+03  0.12500000000E+03  0.00000000000E+00 0. -1.
         24    1    1    2    0    0  0.64333241845E+02 -0.20190706785E+02  0.67906946617E+02  0.12500000000E+03  0.80419002446E+02 0.  1.
        -24    1    1    2    0    0 -0.64333241845E+02  0.20190706785E+02 -0.67906946617E+02  0.12500000000E+03  0.80419002446E+02 0. -1.
</event>
<event>
 4    1  0.1590495E-001  0.1250000E+03  0.7546771E-02  0.1126479E+00
        -11   -1    0    0    0    0  0.00000000000E+00  0.00000000000E+00  0.12500000000E+03  0.12500000000E+03  0.00000000000E+00 0.  1.
         11   -1    0    0    0    0 -0.00000000000E+00 -0.00000000000E+00 -0.12500000000E+03  0.12500000000E+03  0.00000000000E+00 0. -1.
         24    1    1    2    0    0  0.45221754386E+02 -0.49202425756E+02  0.68497432621E+02  0.12500000000E+03  0.80419002446E+02 0.  1.
        -24    1    1    2    0    0 -0.45221754386E+02  0.49202425756E+02 -0.68497432621E+02  0.12500000000E+03  0.80419002446E+02 0. -1.
</event>
<event>
 4    1  0.1590495E-001  0.1250000E+03  0.7546771E-02  0.1126479E+00
        -11   -1    0    0    0    0  0.00000000000E+00  0.00000000000E+00  0.12500000000E+03  0.12500000000E+03  0.00000000000E+00 0.  1.
         11   -1    0    0    0    0 -0.00000000000E+00 -0.00000000000E+00 -0.12500000000E+03  0.12500000000E+03  0.00000000000E+00 0. -1.
         24    1    1    2    0    0  0.28402294189E+02 -0.62521169756E+01  0.91170196686E+02  0.12500000000E+03  0.80419002446E+02 0.  1.
        -24    1    1    2    0    0 -0.28402294189E+02  0.62521169756E+01 -0.91170196686E+02  0.12500000000E+03  0.80419002446E+02 0. -1.
</event>
<event>
 4    1  0.1590495E-001  0.1250000E+03  0.7546771E-02  0.1126479E+00
        -11   -1    0    0    0    0  0.00000000000E+00  0.00000000000E+00  0.12500000000E+03  0.12500000000E+03  0.00000000000E+00 0.  1.
         11   -1    0    0    0    0 -0.00000000000E+00 -0.00000000000E+00 -0.12500000000E+03  0.12500000000E+03  0.00000000000E+00 0. -1.
         24    1    1    2    0    0 -0.25983835469E+02  0.71628456656E+02 -0.57896360309E+02  0.12500000000E+03  0.80419002446E+02 0.  1.
        -24    1    1    2    0    0  0.25983835469E+02 -0.71628456656E+02  0.57896360309E+02  0.12500000000E+03  0.80419002446E+02 0. -1.
</event>
<event>
 4    1  0.1590495E-001  0.1250000E+03  0.7546771E-02  0.1126479E+00
        -11   -1    0    0    0    0  0.00000000000E+00  0.00000000000E+00  0.12500000000E+03  0.12500000000E+03  0.00000000000E+00 0.  1.
         11   -1    0    0    0    0 -0.00000000000E+00 -0.00000000000E+00 -0.12500000000E+03  0.12500000000E+03  0.00000000000E+00 0. -1.
         24    1    1    2    0    0 -0.55961376595E+02  0.64327870302E+02  0.43451507196E+02  0.12500000000E+03  0.80419002446E+02 0.  1.
        -24    1    1    2    0    0  0.55961376595E+02 -0.64327870302E+02 -0.43451507196E+02  0.12500000000E+03  0.80419002446E+02 0. -1.
</event>
<event>
 4    1  0.1590495E-001  0.1250000E+03  0.7546771E-02  0.1126479E+00
        -11   -1    0    0    0    0  0.00000000000E+00  0.00000000000E+00  0.12500000000E+03  0.12500000000E+03  0.00000000000E+00 0.  1.
         11   -1    0    0    0    0 -0.00000000000E+00 -0.00000000000E+00 -0.12500000000E+03  0.12500000000E+03  0.00000000000E+00 0. -1.
         24    1    1    2    0    0  0.39732830692E+02 -0.35162210661E+02  0.79641102154E+02  0.12500000000E+03  0.80419002446E+02 0.  1.
        -24    1    1    2    0    0 -0.39732830692E+02  0.35162210661E+02 -0.79641102154E+02  0.12500000000E+03  0.80419002446E+02 0. -1.
</event>
<event>
 4    1  0.1590495E-001  0.1250000E+03  0.7546771E-02  0.1126479E+00
        -11   -1    0    0    0    0  0.00000000000E+00  0.00000000000E+00  0.12500000000E+03  0.12500000000E+03  0.00000000000E+00 0.  1.
         11   -1    0    0    0    0 -0.00000000000E+00 -0.00000000000E+00 -0.12500000000E+03  0.12500000000E+03  0.00000000000E+00 0. -1.
         24    1    1    2    0    0  0.15944436709E+02 -0.67394198536E+02  0.66042266674E+02  0.12500000000E+03  0.80419002446E+02 0.  1.
        -24    1    1    2    0    0 -0.15944436709E+02  0.67394198536E+02 -0.66042266674E+02  0.12500000000E+03  0.80419002446E+02 0. -1.
</event>
