<event>
 4    1  0.1699921E-001  0.1250000E+03  0.7546771E-02  0.1126479E+00
        -11   -1    0    0    0    0  0.00000000000E+00  0.00000000000E+00  0.12500000000E+03  0.12500000000E+03  0.00000000000E+00 0.  1.
         11   -1    0    0    0    0 -0.00000000000E+00 -0.00000000000E+00 -0.12500000000E+03  0.12500000000E+03  0.00000000000E+00 0. -1.
         24    1    1    2    0    0 -0.47696484533E+02 -0.12758593651E+02  0.81975897048E+02  0.12500000000E+03  0.80419002446E+02 0.  1.
        -24    1    1    2    0    0  0.47696484533E+02  0.12758593651E+02 -0.81975897048E+02  0.12500000000E+03  0.80419002446E+02 0. -1.
</event>
<event>
 4    1  0.1699921E-001  0.1250000E+03  0.7546771E-02  0.1126479E+00
        -11   -1    0    0    0    0  0.00000000000E+00  0.00000000000E+00  0.12500000000E+03  0.12500000000E+03  0.00000000000E+00 0.  1.
         11   -1    0    0    0    0 -0.00000000000E+00 -0.00000000000E+00 -0.12500000000E+03  0.12500000000E+03  0.00000000000E+00 0. -1.
         24    1    1    2    0    0  0.10904573841E+02 -0.68383911353E+02  0.66049337492E+02  0.12500000000E+03  0.80419002446E+02 0.  1.
        -24    1    1    2    0    0 -0.10904573841E+02  0.68383911353E+02 -0.66049337492E+02  0.12500000000E+03  0.80419002446E+02 0. -1.
</event>
<event>
 4    1  0.1699921E-001  0.1250000E+03  0.7546771E-02  0.1126479E+00
        -11   -1    0    0    0    0  0.00000000000E+00  0.00000000000E+00  0.12500000000E+03  0.12500000000E+03  0.00000000000E+00 0.  1.
         11   -1    0    0    0    0 -0.00000000000E+00 -0.00000000000E+00 -0.12500000000E+03  0.12500000000E+03  0.00000000000E+00 0. -1.
         24    1    1    2    0    0 -0.32522611091E+02 -0.25022516597E+02  0.86451937379E+02  0.12500000000E+03  0.80419002446E+02 0.  0.
        -24    1    1    2    0    0  0.32522611091E+02  0.25022516597E+02 -0.86451937379E+02  0.12500000000E+03  0.80419002446E+02 0.  0.
</event>
<event>
 4    1  0.1699921E-001  0.1250000E+03  0.7546771E-02  0.1126479E+00
        -11   -1    0    0    0    0  0.00000000000E+00  0.00000000000E+00  0.12500000000E+03  0.12500000000E+03  0.00000000000E+00 0.  1.
         11   -1    0    0    0    0 -0.00000000000E+00 -0.00000000000E+00 -0.12500000000E+03  0.12500000000E+03  0.00000000000E+00 0. -1.
         24    1    1    2    0    0 -0.27315682773E+02  0.30163858053E+02  0.86612811914E+02  0.12500000000E+03  0.80419002446E+02 0.  1.
        -24    1    1    2    0    0  0.27315682773E+02 -0.30163858053E+02 -0.86612811914E+02  0.12500000000E+03  0.80419002446E+02 0. -1.
</event>
<event>
 4    1  0.1699921E-001  0.1250000E+03  0.7546771E-02  0.1126479E+00
        -11   -1    0    0    0    0  0.00000000000E+00  0.00000000000E+00  0.12500000000E+03  0.12500000000E+03  0.00000000000E+00 0.  1.
         11   -1    0    0    0    0 -0.00000000000E+00 -0.00000000000E+00 -0.12500000000E+03  0.12500000000E+03  0.00000000000E+00 0. -1.
         24    1    1    2    0    0 -0.31690338489E+02  0.19378613348E+02  0.88192833251E+02  0.12500000000E+03  0.80419002446E+02 0.  1.
        -24    1    1    2    0    0  0.31690338489E+02 -0.19378613348E+02 -0.88192833251E+02  0.12500000000E+03  0.80419002446E+02 0. -1.
</event>
<event>
 4    1  0.1699921E-001  0.1250000E+03  0.7546771E-02  0.1126479E+00
        -11   -1    0    0    0    0  0.00000000000E+00  0.00000000000E+00  0.12500000000E+03  0.12500000000E+03  0.00000000000E+00 0.  1.
         11   -1    0    0    0    0 -0.00000000000E+00 -0.00000000000E+00 -0.12500000000E+03  0.12500000000E+03  0.00000000000E+00 0. -1.
         24    1    1    2    0    0 -0.25978182728E+02  0.40142854578E+01  0.92015235587E+02  0.12500000000E+03  0.80419002446E+02 0.  1.
        -24    1    1    2    0    0  0.25978182728E+02 -0.40142854578E+01 -0.92015235587E+02  0.12500000000E+03  0.80419002446E+02 0. -1.
</event>
<event>
 4    1  0.1699921E-001  0.1250000E+03  0.7546771E-02  0.1126479E+00
        -11   -1    0    0    0    0  0.00000000000E+00  0.00000000000E+00  0.12500000000E+03  0.12500000000E+03  0.00000000000E+00 0.  1.
         11   -1    0    0    0    0 -0.00000000000E+00 -0.00000000000E+00 -0.12500000000E+03  0.12500000000E+03  0.00000000000E+00 0. -1.
         24    1    1    2    0    0 -0.89365175091E+02  0.74263800171E+01  0.33414045046E+02  0.12500000000E+03  0.80419002446E+02 0.  1.
        -24    1    1    2    0    0  0.89365175091E+02 -0.74263800171E+01 -0.33414045046E+02  0.12500000000E+03  0.80419002446E+02 0. -1.
</event>
<event>
 4    1  0.1699921E-001  0.1250000E+03  0.7546771E-02  0.1126479E+00
        -11   -1    0    0    0    0  0.00000000000E+00  0.00000000000E+00  0.12500000000E+03  0.12500000000E+03  0.00000000000E+00 0.  1.
         11   -1    0    0    0    0 -0.00000000000E+00 -0.00000000000E+00 -0.12500000000E+03  0.12500000000E+03  0.00000000000E+00 0. -1.
         24    1    1    2    0    0  0.29240944639E+01  0.33936172331E+02  0.89429133534E+02  0.12500000000E+03  0.80419002446E+02 0.  1.
        -24    1    1    2    0    0 -0.29240944639E+01 -0.33936172331E+02 -0.89429133534E+02  0.12500000000E+03  0.80419002446E+02 0. -1.
</event>
<event>
 4    1  0.1699921E-001  0.1250000E+03  0.7546771E-02  0.1126479E+00
        -11   -1    0    0    0    0  0.00000000000E+00  0.00000000000E+00  0.12500000000E+03  0.12500000000E+03  0.00000000000E+00 0.  1.
         11   -1    0    0    0    0 -0.00000000000E+00 -0.00000000000E+00 -0.12500000000E+03  0.12500000000E+03  0.00000000000E+00 0. -1.
         24    1    1    2    0    0  0.23309149902E+02  0.64610310213E+02  0.66633140333E+02  0.12500000000E+03  0.80419002446E+02 0.  1.
        -24    1    1    2    0    0 -0.23309149902E+02 -0.64610310213E+02 -0.66633140333E+02  0.12500000000E+03  0.80419002446E+02 0. -1.
</event>
<event>
 4    1  0.1699921E-001  0.1250000E+03  0.7546771E-02  0.1126479E+00
        -11   -1    0    0    0    0  0.00000000000E+00  0.00000000000E+00  0.12500000000E+03  0.12500000000E+03  0.00000000000E+00 0.  1.
         11   -1    0    0    0    0 -0.00000000000E+00 -0.00000000000E+00 -0.12500000000E+03  0.12500000000E+03  0.00000000000E+00 0. -1.
         24    1    1    2    0    0 -0.30526342369E+02 -0.82913009651E+02  0.36760839189E+02  0.12500000000E+03  0.80419002446E+02 0.  0.
        -24    1    1    2    0    0  0.30526342369E+02  0.82913009651E+02 -0.36760839189E+02  0.12500000000E+03  0.80419002446E+02 0.  1.
</event>
<event>
 4    1  0.1699921E-001  0.1250000E+03  0.7546771E-02  0.1126479E+00
        -11   -1    0    0    0    0  0.00000000000E+00  0.00000000000E+00  0.12500000000E+03  0.12500000000E+03  0.00000000000E+00 0.  1.
         11   -1    0    0    0    0 -0.00000000000E+00 -0.00000000000E+00 -0.12500000000E+03  0.12500000000E+03  0.00000000000E+00 0. -1.
         24    1    1    2    0    0  0.35670122652E+02  0.84316951248E+01  0.88398715562E+02  0.12500000000E+03  0.80419002446E+02 0.  1.
        -24    1    1    2    0    0 -0.35670122652E+02 -0.84316951248E+01 -0.88398715562E+02  0.12500000000E+03  0.80419002446E+02 0. -1.
</event>
<event>
 4    1  0.1699921E-001  0.1250000E+03  0.7546771E-02  0.1126479E+00
        -11   -1    0    0    0    0  0.00000000000E+00  0.00000000000E+00  0.12500000000E+03  0.12500000000E+03  0.00000000000E+00 0.  1.
         11   -1    0    0    0    0 -0.00000000000E+00 -0.00000000000E+00 -0.12500000000E+03  0.12500000000E+03  0.00000000000E+00 0. -1.
         24    1    1    2    0    0 -0.29489591291E+01 -0.86363120512E+02  0.41115679504E+02  0.12500000000E+03  0.80419002446E+02 0.  0.
        -24    1    1    2    0    0  0.29489591291E+01  0.86363120512E+02 -0.41115679504E+02  0.12500000000E+03  0.80419002446E+02 0. -1.
</event>
<event>
 4    1  0.1699921E-001  0.1250000E+03  0.7546771E-02  0.1126479E+00
        -11   -1    0    0    0    0  0.00000000000E+00  0.00000000000E+00  0.12500000000E+03  0.12500000000E+03  0.00000000000E+00 0.  1.
         11   -1    0    0    0    0 -0.00000000000E+00 -0.00000000000E+00 -0.12500000000E+03  0.12500000000E+03  0.00000000000E+00 0. -1.
         24    1    1    2    0    0 -0.43484174123E+02 -0.53676613214E+02  0.66224858175E+02  0.12500000000E+03  0.80419002446E+02 0.  1.
        -24    1    1    2    0    0  0.43484174123E+02  0.53676613214E+02 -0.66224858175E+02  0.12500000000E+03  0.80419002446E+02 0. -1.
</event>
<event>
 4    1  0.1699921E-001  0.1250000E+03  0.7546771E-02  0.1126479E+00
        -11   -1    0    0    0    0  0.00000000000E+00  0.00000000000E+00  0.12500000000E+03  0.12500000000E+03  0.00000000000E+00 0.  1.
         11   -1    0    0    0    0 -0.00000000000E+00 -0.00000000000E+00 -0.12500000000E+03  0.12500000000E+03  0.00000000000E+00 0. -1.
         24    1    1    2    0    0 -0.19088361692E+02  0.69719139657E+01  0.93513693699E+02  0.12500000000E+03  0.80419002446E+02 0.  1.
        -24    1    1    2    0    0  0.19088361692E+02 -0.69719139657E+01 -0.93513693699E+02  0.12500000000E+03  0.80419002446E+02 0. -1.
</event>
<event>
 4    1  0.1699921E-001  0.1250000E+03  0.7546771E-02  0.1126479E+00
        -11   -1    0    0    0    0  0.00000000000E+00  0.00000000000E+00  0.12500000000E+03  0.12500000000E+03  0.00000000000E+00 0.  1.
         11   -1    0    0    0    0 -0.00000000000E+00 -0.00000000000E+00 -0.12500000000E+03  0.12500000000E+03  0.00000000000E+00 0. -1.
         24    1    1    2    0    0 -0.39658518756E+01  0.22639186939E+02  0.92895227430E+02  0.12500000000E+03  0.80419002446E+02 0.  1.
        -24    1    1    2    0    0  0.39658518756E+01 -0.22639186939E+02 -0.92895227430E+02  0.12500000000E+03  0.80419002446E+02 0. -1.
</event>
<event>
 4    1  0.1699921E-001  0.1250000E+03  0.7546771E-02  0.1126479E+00
        -11   -1    0    0    0    0  0.00000000000E+00  0.00000000000E+00  0.12500000000E+03  0.12500000000E+03  0.00000000000E+00 0.  1.
         11   -1    0    0    0    0 -0.00000000000E+00 -0.00000000000E+00 -0.12500000000E+03  0.12500000000E+03  0.00000000000E+00 0. -1.
         24    1    1    2    0    0 -0.42831154129E+02 -0.42533623185E+02  0.74257438552E+02  0.12500000000E+03  0.80419002446E+02 0.  1.
        -24    1    1    2    0    0  0.42831154129E+02  0.42533623185E+02 -0.74257438552E+02  0.12500000000E+03  0.80419002446E+02 0. -1.
</event>
<event>
 4    1  0.1699921E-001  0.1250000E+03  0.7546771E-02  0.1126479E+00
        -11   -1    0    0    0    0  0.00000000000E+00  0.00000000000E+00  0.12500000000E+03  0.12500000000E+03  0.00000000000E+00 0.  1.
         11   -1    0    0    0    0 -0.00000000000E+00 -0.00000000000E+00 -0.12500000000E+03  0.12500000000E+03  0.00000000000E+00 0. -1.
         24    1    1    2    0    0 -0.16527748526E+02  0.29569790087E+02  0.89499972562E+02  0.12500000000E+03  0.80419002446E+02 0.  1.
        -24    1    1    2    0    0  0.16527748526E+02 -0.29569790087E+02 -0.89499972562E+02  0.12500000000E+03  0.80419002446E+02 0. -1.
</event>
<event>
 4    1  0.1699921E-001  0.1250000E+03  0.7546771E-02  0.1126479E+00
        -11   -1    0    0    0    0  0.00000000000E+00  0.00000000000E+00  0.12500000000E+03  0.12500000000E+03  0.00000000000E+00 0.  1.
         11   -1    0    0    0    0 -0.00000000000E+00 -0.00000000000E+00 -0.12500000000E+03  0.12500000000E+03  0.00000000000E+00 0. -1.
         24    1    1    2    0    0  0.47417177266E+02  0.14486762874E+02  0.81850650866E+02  0.12500000000E+03  0.80419002446E+02 0.  1.
        -24    1    1    2    0    0 -0.47417177266E+02 -0.14486762874E+02 -0.81850650866E+02  0.12500000000E+03  0.80419002446E+02 0. -1.
</event>
<event>
 4    1  0.1699921E-001  0.1250000E+03  0.7546771E-02  0.1126479E+00
        -11   -1    0    0    0    0  0.00000000000E+00  0.00000000000E+00  0.12500000000E+03  0.12500000000E+03  0.00000000000E+00 0.  1.
         11   -1    0    0    0    0 -0.00000000000E+00 -0.00000000000E+00 -0.12500000000E+03  0.12500000000E+03  0.00000000000E+00 0. -1.
         24    1    1    2    0    0  0.83110691273E+01  0.38278573878E+01  0.95257848408E+02  0.12500000000E+03  0.80419002446E+02 0.  0.
        -24    1    1    2    0    0 -0.83110691273E+01 -0.38278573878E+01 -0.95257848408E+02  0.12500000000E+03  0.80419002446E+02 0. -1.
</event>
<event>
 4    1  0.1699921E-001  0.1250000E+03  0.7546771E-02  0.1126479E+00
        -11   -1    0    0    0    0  0.00000000000E+00  0.00000000000E+00  0.12500000000E+03  0.12500000000E+03  0.00000000000E+00 0.  1.
         11   -1    0    0    0    0 -0.00000000000E+00 -0.00000000000E+00 -0.12500000000E+03  0.12500000000E+03  0.00000000000E+00 0. -1.
         24    1    1    2    0    0  0.56765774063E+02  0.34418333839E+02  0.68926114328E+02  0.12500000000E+03  0.80419002446E+02 0.  1.
        -24    1    1    2    0    0 -0.56765774063E+02 -0.34418333839E+02 -0.68926114328E+02  0.12500000000E+03  0.80419002446E+02 0. -1.
</event>
<event>
 4    1  0.1699921E-001  0.1250000E+03  0.7546771E-02  0.1126479E+00
        -11   -1    0    0    0    0  0.00000000000E+00  0.00000000000E+00  0.12500000000E+03  0.12500000000E+03  0.00000000000E+00 0.  1.
         11   -1    0    0    0    0 -0.00000000000E+00 -0.00000000000E+00 -0.12500000000E+03  0.12500000000E+03  0.00000000000E+00 0. -1.
         24    1    1    2    0    0  0.56553083719E+02 -0.28430090223E+02  0.71772297841E+02  0.12500000000E+03  0.80419002446E+02 0.  0.
        -24    1    1    2    0    0 -0.56553083719E+02  0.28430090223E+02 -0.71772297841E+02  0.12500000000E+03  0.80419002446E+02 0.  1.
</event>
<event>
 4    1  0.1699921E-001  0.1250000E+03  0.7546771E-02  0.1126479E+00
        -11   -1    0    0    0    0  0.00000000000E+00  0.00000000000E+00  0.12500000000E+03  0.12500000000E+03  0.00000000000E+00 0.  1.
         11   -1    0    0    0    0 -0.00000000000E+00 -0.00000000000E+00 -0.12500000000E+03  0.12500000000E+03  0.00000000000E+00 0. -1.
         24    1    1    2    0    0  0.13165095016E+02 -0.78144748350E+01  0.94463740673E+02  0.12500000000E+03  0.80419002446E+02 0.  1.
        -24    1    1    2    0    0 -0.13165095016E+02  0.78144748350E+01 -0.94463740673E+02  0.12500000000E+03  0.80419002446E+02 0. -1.
</event>
<event>
 4    1  0.1699921E-001  0.1250000E+03  0.7546771E-02  0.1126479E+00
        -11   -1    0    0    0    0  0.00000000000E+00  0.00000000000E+00  0.12500000000E+03  0.12500000000E+03  0.00000000000E+00 0.  1.
         11   -1    0    0    0    0 -0.00000000000E+00 -0.00000000000E+00 -0.12500000000E+03  0.12500000000E+03  0.00000000000E+00 0. -1.
         24    1    1    2    0    0 -0.17992548539E+02 -0.92609662791E+02 -0.16046887564E+02  0.12500000000E+03  0.80419002446E+02 0.  1.
        -24    1    1    2    0    0  0.17992548539E+02  0.92609662791E+02  0.16046887564E+02  0.12500000000E+03  0.80419002446E+02 0.  0.
</event>
<event>
 4    1  0.1699921E-001  0.1250000E+03  0.7546771E-02  0.1126479E+00
        -11   -1    0    0    0    0  0.00000000000E+00  0.00000000000E+00  0.12500000000E+03  0.12500000000E+03  0.00000000000E+00 0.  1.
         11   -1    0    0    0    0 -0.00000000000E+00 -0.00000000000E+00 -0.12500000000E+03  0.12500000000E+03  0.00000000000E+00 0. -1.
         24    1    1    2    0    0  0.29248075887E+01  0.45403785870E+01  0.95543783202E+02  0.12500000000E+03  0.80419002446E+02 0.  0.
        -24    1    1    2    0    0 -0.29248075887E+01 -0.45403785870E+01 -0.95543783202E+02  0.12500000000E+03  0.80419002446E+02 0. -1.
</event>
<event>
 4    1  0.1699921E-001  0.1250000E+03  0.7546771E-02  0.1126479E+00
        -11   -1    0    0    0    0  0.00000000000E+00  0.00000000000E+00  0.12500000000E+03  0.12500000000E+03  0.00000000000E+00 0.  1.
         11   -1    0    0    0    0 -0.00000000000E+00 -0.00000000000E+00 -0.12500000000E+03  0.12500000000E+03  0.00000000000E+00 0. -1.
         24    1    1    2    0    0  0.69489728116E+01  0.39946300614E+02  0.86682114013E+02  0.12500000000E+03  0.80419002446E+02 0.  1.
        -24    1    1    2    0    0 -0.69489728116E+01 -0.39946300614E+02 -0.86682114013E+02  0.12500000000E+03  0.80419002446E+02 0. -1.
</event>
<event>
 4    1  0.1699921E-001  0.1250000E+03  0.7546771E-02  0.1126479E+00
        -11   -1    0    0    0    0  0.00000000000E+00  0.00000000000E+00  0.12500000000E+03  0.12500000000E+03  0.00000000000E+00 0.  1.
         11   -1    0    0    0    0 -0.00000000000E+00 -0.00000000000E+00 -0.12500000000E+03  0.12500000000E+03  0.00000000000E+00 0. -1.
         24    1    1    2    0    0  0.60744311039E+02  0.56513121028E+01  0.73729067494E+02  0.12500000000E+03  0.80419002446E+02 0. -1.
        -24    1    1    2    0    0 -0.60744311039E+02 -0.56513121028E+01 -0.73729067494E+02  0.12500000000E+03  0.80419002446E+02 0. -1.
</event>
<event>
 4    1  0.1699921E-001  0.1250000E+03  0.7546771E-02  0.1126479E+00
        -11   -1    0    0    0    0  0.00000000000E+00  0.00000000000E+00  0.12500000000E+03  0.12500000000E+03  0.00000000000E+00 0.  1.
         11   -1    0    0    0    0 -0.00000000000E+00 -0.00000000000E+00 -0.12500000000E+03  0.12500000000E+03  0.00000000000E+00 0. -1.
         24    1    1    2    0    0  0.59876618846E+01 -0.67464205932E+02  0.67605568327E+02  0.12500000000E+03  0.80419002446E+02 0.  1.
        -24    1    1    2    0    0 -0.59876618846E+01  0.67464205932E+02 -0.67605568327E+02  0.12500000000E+03  0.80419002446E+02 0. -1.
</event>
<event>
 4    1  0.1699921E-001  0.1250000E+03  0.7546771E-02  0.1126479E+00
        -11   -1    0    0    0    0  0.00000000000E+00  0.00000000000E+00  0.12500000000E+03  0.12500000000E+03  0.00000000000E+00 0.  1.
         11   -1    0    0    0    0 -0.00000000000E+00 -0.00000000000E+00 -0.12500000000E+03  0.12500000000E+03  0.00000000000E+00 0. -1.
         24    1    1    2    0    0 -0.37267101315E+02  0.61022976105E+01  0.87930138002E+02  0.12500000000E+03  0.80419002446E+02 0.  1.
        -24    1    1    2    0    0  0.37267101315E+02 -0.61022976105E+01 -0.87930138002E+02  0.12500000000E+03  0.80419002446E+02 0. -1.
</event>
<event>
 4    1  0.1699921E-001  0.1250000E+03  0.7546771E-02  0.1126479E+00
        -11   -1    0    0    0    0  0.00000000000E+00  0.00000000000E+00  0.12500000000E+03  0.12500000000E+03  0.00000000000E+00 0.  1.
         11   -1    0    0    0    0 -0.00000000000E+00 -0.00000000000E+00 -0.12500000000E+03  0.12500000000E+03  0.00000000000E+00 0. -1.
         24    1    1    2    0    0  0.34687416330E+02  0.26282815430E+02  0.85227817097E+02  0.12500000000E+03  0.80419002446E+02 0.  1.
        -24    1    1    2    0    0 -0.34687416330E+02 -0.26282815430E+02 -0.85227817097E+02  0.12500000000E+03  0.80419002446E+02 0. -1.
</event>
<event>
 4    1  0.1699921E-001  0.1250000E+03  0.7546771E-02  0.1126479E+00
        -11   -1    0    0    0    0  0.00000000000E+00  0.00000000000E+00  0.12500000000E+03  0.12500000000E+03  0.00000000000E+00 0.  1.
         11   -1    0    0    0    0 -0.00000000000E+00 -0.00000000000E+00 -0.12500000000E+03  0.12500000000E+03  0.00000000000E+00 0. -1.
         24    1    1    2    0    0  0.95931385622E+01  0.31433895830E+02  0.89875836191E+02  0.12500000000E+03  0.80419002446E+02 0.  0.
        -24    1    1    2    0    0 -0.95931385622E+01 -0.31433895830E+02 -0.89875836191E+02  0.12500000000E+03  0.80419002446E+02 0.  0.
</event>
<event>
 4    1  0.1699921E-001  0.1250000E+03  0.7546771E-02  0.1126479E+00
        -11   -1    0    0    0    0  0.00000000000E+00  0.00000000000E+00  0.12500000000E+03  0.12500000000E+03  0.00000000000E+00 0.  1.
         11   -1    0    0    0    0 -0.00000000000E+00 -0.00000000000E+00 -0.12500000000E+03  0.12500000000E+03  0.00000000000E+00 0. -1.
         24    1    1    2    0    0  0.41310026104E+02  0.52811692239E+01  0.86159010211E+02  0.12500000000E+03  0.80419002446E+02 0.  1.
        -24    1    1    2    0    0 -0.41310026104E+02 -0.52811692239E+01 -0.86159010211E+02  0.12500000000E+03  0.80419002446E+02 0. -1.
</event>
<event>
 4    1  0.1699921E-001  0.1250000E+03  0.7546771E-02  0.1126479E+00
        -11   -1    0    0    0    0  0.00000000000E+00  0.00000000000E+00  0.12500000000E+03  0.12500000000E+03  0.00000000000E+00 0.  1.
         11   -1    0    0    0    0 -0.00000000000E+00 -0.00000000000E+00 -0.12500000000E+03  0.12500000000E+03  0.00000000000E+00 0. -1.
         24    1    1    2    0    0 -0.16982810992E+02 -0.39381829165E+02  0.85547879623E+02  0.12500000000E+03  0.80419002446E+02 0.  1.
        -24    1    1    2    0    0  0.16982810992E+02  0.39381829165E+02 -0.85547879623E+02  0.12500000000E+03  0.80419002446E+02 0. -1.
</event>
<event>
 4    1  0.1699921E-001  0.1250000E+03  0.7546771E-02  0.1126479E+00
        -11   -1    0    0    0    0  0.00000000000E+00  0.00000000000E+00  0.12500000000E+03  0.12500000000E+03  0.00000000000E+00 0.  1.
         11   -1    0    0    0    0 -0.00000000000E+00 -0.00000000000E+00 -0.12500000000E+03  0.12500000000E+03  0.00000000000E+00 0. -1.
         24    1    1    2    0    0  0.33718069775E+01 -0.10847237945E+02  0.95019747381E+02  0.12500000000E+03  0.80419002446E+02 0.  0.
        -24    1    1    2    0    0 -0.33718069775E+01  0.10847237945E+02 -0.95019747381E+02  0.12500000000E+03  0.80419002446E+02 0. -1.
</event>
<event>
 4    1  0.1699921E-001  0.1250000E+03  0.7546771E-02  0.1126479E+00
        -11   -1    0    0    0    0  0.00000000000E+00  0.00000000000E+00  0.12500000000E+03  0.12500000000E+03  0.00000000000E+00 0.  1.
         11   -1    0    0    0    0 -0.00000000000E+00 -0.00000000000E+00 -0.12500000000E+03  0.12500000000E+03  0.00000000000E+00 0. -1.
         24    1    1    2    0    0 -0.31702695547E+02 -0.48579273312E+02  0.76110297235E+02  0.12500000000E+03  0.80419002446E+02 0.  1.
        -24    1    1    2    0    0  0.31702695547E+02  0.48579273312E+02 -0.76110297235E+02  0.12500000000E+03  0.80419002446E+02 0. -1.
</event>
<event>
 4    1  0.1699921E-001  0.1250000E+03  0.7546771E-02  0.1126479E+00
        -11   -1    0    0    0    0  0.00000000000E+00  0.00000000000E+00  0.12500000000E+03  0.12500000000E+03  0.00000000000E+00 0.  1.
         11   -1    0    0    0    0 -0.00000000000E+00 -0.00000000000E+00 -0.12500000000E+03  0.12500000000E+03  0.00000000000E+00 0. -1.
         24    1    1    2    0    0  0.35615457292E+02  0.17797702385E+02  0.87020486309E+02  0.12500000000E+03  0.80419002446E+02 0.  1.
        -24    1    1    2    0    0 -0.35615457292E+02 -0.17797702385E+02 -0.87020486309E+02  0.12500000000E+03  0.80419002446E+02 0. -1.
</event>
<event>
 4    1  0.1699921E-001  0.1250000E+03  0.7546771E-02  0.1126479E+00
        -11   -1    0    0    0    0  0.00000000000E+00  0.00000000000E+00  0.12500000000E+03  0.12500000000E+03  0.00000000000E+00 0.  1.
         11   -1    0    0    0    0 -0.00000000000E+00 -0.00000000000E+00 -0.12500000000E+03  0.12500000000E+03  0.00000000000E+00 0. -1.
         24    1    1    2    0    0 -0.17297595522E+01  0.56606061274E+02  0.77139780947E+02  0.12500000000E+03  0.80419002446E+02 0.  1.
        -24    1    1    2    0    0  0.17297595522E+01 -0.56606061274E+02 -0.77139780947E+02  0.12500000000E+03  0.80419002446E+02 0. -1.
</event>
<event>
 4    1  0.1699921E-001  0.1250000E+03  0.7546771E-02  0.1126479E+00
        -11   -1    0    0    0    0  0.00000000000E+00  0.00000000000E+00  0.12500000000E+03  0.12500000000E+03  0.00000000000E+00 0.  1.
         11   -1    0    0    0    0 -0.00000000000E+00 -0.00000000000E+00 -0.12500000000E+03  0.12500000000E+03  0.00000000000E+00 0. -1.
         24    1    1    2    0    0 -0.55859270414E+02  0.33588304361E+02  0.70066766478E+02  0.12500000000E+03  0.80419002446E+02 0.  1.
        -24    1    1    2    0    0  0.55859270414E+02 -0.33588304361E+02 -0.70066766478E+02  0.12500000000E+03  0.80419002446E+02 0. -1.
</event>
<event>
 4    1  0.1699921E-001  0.1250000E+03  0.7546771E-02  0.1126479E+00
        -11   -1    0    0    0    0  0.00000000000E+00  0.00000000000E+00  0.12500000000E+03  0.12500000000E+03  0.00000000000E+00 0.  1.
         11   -1    0    0    0    0 -0.00000000000E+00 -0.00000000000E+00 -0.12500000000E+03  0.12500000000E+03  0.00000000000E+00 0. -1.
         24    1    1    2    0    0 -0.25689100511E+02  0.84476782958E+02 -0.36898879410E+02  0.12500000000E+03  0.80419002446E+02 0. -1.
        -24    1    1    2    0    0  0.25689100511E+02 -0.84476782958E+02  0.36898879410E+02  0.12500000000E+03  0.80419002446E+02 0.  1.
</event>
<event>
 4    1  0.1699921E-001  0.1250000E+03  0.7546771E-02  0.1126479E+00
        -11   -1    0    0    0    0  0.00000000000E+00  0.00000000000E+00  0.12500000000E+03  0.12500000000E+03  0.00000000000E+00 0.  1.
         11   -1    0    0    0    0 -0.00000000000E+00 -0.00000000000E+00 -0.12500000000E+03  0.12500000000E+03  0.00000000000E+00 0. -1.
         24    1    1    2    0    0 -0.33967802902E+02  0.11565190546E+02  0.88714253530E+02  0.12500000000E+03  0.80419002446E+02 0.  1.
        -24    1    1    2    0    0  0.33967802902E+02 -0.11565190546E+02 -0.88714253530E+02  0.12500000000E+03  0.80419002446E+02 0. -1.
</event>
<event>
 4    1  0.1699921E-001  0.1250000E+03  0.7546771E-02  0.1126479E+00
        -11   -1    0    0    0    0  0.00000000000E+00  0.00000000000E+00  0.12500000000E+03  0.12500000000E+03  0.00000000000E+00 0.  1.
         11   -1    0    0    0    0 -0.00000000000E+00 -0.00000000000E+00 -0.12500000000E+03  0.12500000000E+03  0.00000000000E+00 0. -1.
         24    1    1    2    0    0  0.29591813113E+01  0.73396246976E+00  0.95647731759E+02  0.12500000000E+03  0.80419002446E+02 0.  0.
        -24    1    1    2    0    0 -0.29591813113E+01 -0.73396246976E+00 -0.95647731759E+02  0.12500000000E+03  0.80419002446E+02 0. -1.
</event>
<event>
 4    1  0.1699921E-001  0.1250000E+03  0.7546771E-02  0.1126479E+00
        -11   -1    0    0    0    0  0.00000000000E+00  0.00000000000E+00  0.12500000000E+03  0.12500000000E+03  0.00000000000E+00 0.  1.
         11   -1    0    0    0    0 -0.00000000000E+00 -0.00000000000E+00 -0.12500000000E+03  0.12500000000E+03  0.00000000000E+00 0. -1.
         24    1    1    2    0    0  0.11455229017E+02  0.58079367669E+02 -0.75188754644E+02  0.12500000000E+03  0.80419002446E+02 0. -1.
        -24    1    1    2    0    0 -0.11455229017E+02 -0.58079367669E+02  0.75188754644E+02  0.12500000000E+03  0.80419002446E+02 0.  1.
</event>
<event>
 4    1  0.1699921E-001  0.1250000E+03  0.7546771E-02  0.1126479E+00
        -11   -1    0    0    0    0  0.00000000000E+00  0.00000000000E+00  0.12500000000E+03  0.12500000000E+03  0.00000000000E+00 0.  1.
         11   -1    0    0    0    0 -0.00000000000E+00 -0.00000000000E+00 -0.12500000000E+03  0.12500000000E+03  0.00000000000E+00 0. -1.
         24    1    1    2    0    0 -0.23734646983E+02  0.97000860029E+01  0.92197391014E+02  0.12500000000E+03  0.80419002446E+02 0.  0.
        -24    1    1    2    0    0  0.23734646983E+02 -0.97000860029E+01 -0.92197391014E+02  0.12500000000E+03  0.80419002446E+02 0. -1.
</event>
<event>
 4    1  0.1699921E-001  0.1250000E+03  0.7546771E-02  0.1126479E+00
        -11   -1    0    0    0    0  0.00000000000E+00  0.00000000000E+00  0.12500000000E+03  0.12500000000E+03  0.00000000000E+00 0.  1.
         11   -1    0    0    0    0 -0.00000000000E+00 -0.00000000000E+00 -0.12500000000E+03  0.12500000000E+03  0.00000000000E+00 0. -1.
         24    1    1    2    0    0 -0.82836736127E+02  0.27427535139E+02  0.39288541708E+02  0.12500000000E+03  0.80419002446E+02 0.  0.
        -24    1    1    2    0    0  0.82836736127E+02 -0.27427535139E+02 -0.39288541708E+02  0.12500000000E+03  0.80419002446E+02 0.  0.
</event>
<event>
 4    1  0.1699921E-001  0.1250000E+03  0.7546771E-02  0.1126479E+00
        -11   -1    0    0    0    0  0.00000000000E+00  0.00000000000E+00  0.12500000000E+03  0.12500000000E+03  0.00000000000E+00 0.  1.
         11   -1    0    0    0    0 -0.00000000000E+00 -0.00000000000E+00 -0.12500000000E+03  0.12500000000E+03  0.00000000000E+00 0. -1.
         24    1    1    2    0    0  0.14732133975E+02  0.10562604570E+02  0.93963714586E+02  0.12500000000E+03  0.80419002446E+02 0.  0.
        -24    1    1    2    0    0 -0.14732133975E+02 -0.10562604570E+02 -0.93963714586E+02  0.12500000000E+03  0.80419002446E+02 0.  0.
</event>
<event>
 4    1  0.1699921E-001  0.1250000E+03  0.7546771E-02  0.1126479E+00
        -11   -1    0    0    0    0  0.00000000000E+00  0.00000000000E+00  0.12500000000E+03  0.12500000000E+03  0.00000000000E+00 0.  1.
         11   -1    0    0    0    0 -0.00000000000E+00 -0.00000000000E+00 -0.12500000000E+03  0.12500000000E+03  0.00000000000E+00 0. -1.
         24    1    1    2    0    0 -0.23207801326E+02 -0.30636902505E+02  0.87638816789E+02  0.12500000000E+03  0.80419002446E+02 0.  1.
        -24    1    1    2    0    0  0.23207801326E+02  0.30636902505E+02 -0.87638816789E+02  0.12500000000E+03  0.80419002446E+02 0. -1.
</event>
<event>
 4    1  0.1699921E-001  0.1250000E+03  0.7546771E-02  0.1126479E+00
        -11   -1    0    0    0    0  0.00000000000E+00  0.00000000000E+00  0.12500000000E+03  0.12500000000E+03  0.00000000000E+00 0.  1.
         11   -1    0    0    0    0 -0.00000000000E+00 -0.00000000000E+00 -0.12500000000E+03  0.12500000000E+03  0.00000000000E+00 0. -1.
         24    1    1    2    0    0  0.58600565626E+02  0.39912226033E+01  0.75550168074E+02  0.12500000000E+03  0.80419002446E+02 0.  1.
        -24    1    1    2    0    0 -0.58600565626E+02 -0.39912226033E+01 -0.75550168074E+02  0.12500000000E+03  0.80419002446E+02 0. -1.
</event>
<event>
 4    1  0.1699921E-001  0.1250000E+03  0.7546771E-02  0.1126479E+00
        -11   -1    0    0    0    0  0.00000000000E+00  0.00000000000E+00  0.12500000000E+03  0.12500000000E+03  0.00000000000E+00 0.  1.
         11   -1    0    0    0    0 -0.00000000000E+00 -0.00000000000E+00 -0.12500000000E+03  0.12500000000E+03  0.00000000000E+00 0. -1.
         24    1    1    2    0    0  0.89885743781E+02 -0.10790832157E+02  0.31014432960E+02  0.12500000000E+03  0.80419002446E+02 0.  1.
        -24    1    1    2    0    0 -0.89885743781E+02  0.10790832157E+02 -0.31014432960E+02  0.12500000000E+03  0.80419002446E+02 0. -1.
</event>
<event>
 4    1  0.1699921E-001  0.1250000E+03  0.7546771E-02  0.1126479E+00
        -11   -1    0    0    0    0  0.00000000000E+00  0.00000000000E+00  0.12500000000E+03  0.12500000000E+03  0.00000000000E+00 0.  1.
         11   -1    0    0    0    0 -0.00000000000E+00 -0.00000000000E+00 -0.12500000000E+03  0.12500000000E+03  0.00000000000E+00 0. -1.
         24    1    1    2    0    0 -0.78876803016E+02 -0.35832293923E+02 -0.40648255853E+02  0.12500000000E+03  0.80419002446E+02 0. -1.
        -24    1    1    2    0    0  0.78876803016E+02  0.35832293923E+02  0.40648255853E+02  0.12500000000E+03  0.80419002446E+02 0.  1.
</event>
<event>
 4    1  0.1699921E-001  0.1250000E+03  0.7546771E-02  0.1126479E+00
        -11   -1    0    0    0    0  0.00000000000E+00  0.00000000000E+00  0.12500000000E+03  0.12500000000E+03  0.00000000000E+00 0.  1.
         11   -1    0    0    0    0 -0.00000000000E+00 -0.00000000000E+00 -0.12500000000E+03  0.12500000000E+03  0.00000000000E+00 0. -1.
         24    1    1    2    0    0  0.78601589241E+02  0.28704228539E+02  0.46428886249E+02  0.12500000000E+03  0.80419002446E+02 0. -1.
        -24    1    1    2    0    0 -0.78601589241E+02 -0.28704228539E+02 -0.46428886249E+02  0.12500000000E+03  0.80419002446E+02 0.  1.
</event>
<event>
 4    1  0.1699921E-001  0.1250000E+03  0.7546771E-02  0.1126479E+00
        -11   -1    0    0    0    0  0.00000000000E+00  0.00000000000E+00  0.12500000000E+03  0.12500000000E+03  0.00000000000E+00 0.  1.
         11   -1    0    0    0    0 -0.00000000000E+00 -0.00000000000E+00 -0.12500000000E+03  0.12500000000E+03  0.00000000000E+00 0. -1.
         24    1    1    2    0    0 -0.58081886013E+02 -0.23077342420E+02  0.72468716213E+02  0.12500000000E+03  0.80419002446E+02 0.  1.
        -24    1    1    2    0    0  0.58081886013E+02  0.23077342420E+02 -0.72468716213E+02  0.12500000000E+03  0.80419002446E+02 0. -1.
</event>
<event>
 4    1  0.1699921E-001  0.1250000E+03  0.7546771E-02  0.1126479E+00
        -11   -1    0    0    0    0  0.00000000000E+00  0.00000000000E+00  0.12500000000E+03  0.12500000000E+03  0.00000000000E+00 0.  1.
         11   -1    0    0    0    0 -0.00000000000E+00 -0.00000000000E+00 -0.12500000000E+03  0.12500000000E+03  0.00000000000E+00 0. -1.
         24    1    1    2    0    0 -0.19098214989E+02  0.23645253963E+02  0.90741083280E+02  0.12500000000E+03  0.80419002446E+02 0.  1.
        -24    1    1    2    0    0  0.19098214989E+02 -0.23645253963E+02 -0.90741083280E+02  0.12500000000E+03  0.80419002446E+02 0. -1.
</event>
<event>
 4    1  0.1699921E-001  0.1250000E+03  0.7546771E-02  0.1126479E+00
        -11   -1    0    0    0    0  0.00000000000E+00  0.00000000000E+00  0.12500000000E+03  0.12500000000E+03  0.00000000000E+00 0.  1.
         11   -1    0    0    0    0 -0.00000000000E+00 -0.00000000000E+00 -0.12500000000E+03  0.12500000000E+03  0.00000000000E+00 0. -1.
         24    1    1    2    0    0  0.54933320902E+02 -0.20999323824E+02  0.75492666526E+02  0.12500000000E+03  0.80419002446E+02 0.  1.
        -24    1    1    2    0    0 -0.54933320902E+02  0.20999323824E+02 -0.75492666526E+02  0.12500000000E+03  0.80419002446E+02 0. -1.
</event>
<event>
 4    1  0.1699921E-001  0.1250000E+03  0.7546771E-02  0.1126479E+00
        -11   -1    0    0    0    0  0.00000000000E+00  0.00000000000E+00  0.12500000000E+03  0.12500000000E+03  0.00000000000E+00 0. -1.
         11   -1    0    0    0    0 -0.00000000000E+00 -0.00000000000E+00 -0.12500000000E+03  0.12500000000E+03  0.00000000000E+00 0.  1.
         24    1    1    2    0    0  0.14104059168E+02 -0.93749862583E+02 -0.13031608737E+02  0.12500000000E+03  0.80419002446E+02 0.  0.
        -24    1    1    2    0    0 -0.14104059168E+02  0.93749862583E+02  0.13031608737E+02  0.12500000000E+03  0.80419002446E+02 0.  0.
</event>
<event>
 4    1  0.1699921E-001  0.1250000E+03  0.7546771E-02  0.1126479E+00
        -11   -1    0    0    0    0  0.00000000000E+00  0.00000000000E+00  0.12500000000E+03  0.12500000000E+03  0.00000000000E+00 0.  1.
         11   -1    0    0    0    0 -0.00000000000E+00 -0.00000000000E+00 -0.12500000000E+03  0.12500000000E+03  0.00000000000E+00 0. -1.
         24    1    1    2    0    0  0.13059394021E+02  0.26126570561E+02  0.91129789773E+02  0.12500000000E+03  0.80419002446E+02 0.  1.
        -24    1    1    2    0    0 -0.13059394021E+02 -0.26126570561E+02 -0.91129789773E+02  0.12500000000E+03  0.80419002446E+02 0. -1.
</event>
<event>
 4    1  0.1699921E-001  0.1250000E+03  0.7546771E-02  0.1126479E+00
        -11   -1    0    0    0    0  0.00000000000E+00  0.00000000000E+00  0.12500000000E+03  0.12500000000E+03  0.00000000000E+00 0.  1.
         11   -1    0    0    0    0 -0.00000000000E+00 -0.00000000000E+00 -0.12500000000E+03  0.12500000000E+03  0.00000000000E+00 0. -1.
         24    1    1    2    0    0 -0.90780329082E+02 -0.20372369604E+02  0.22398268997E+02  0.12500000000E+03  0.80419002446E+02 0.  1.
        -24    1    1    2    0    0  0.90780329082E+02  0.20372369604E+02 -0.22398268997E+02  0.12500000000E+03  0.80419002446E+02 0. -1.
</event>
<event>
 4    1  0.1699921E-001  0.1250000E+03  0.7546771E-02  0.1126479E+00
        -11   -1    0    0    0    0  0.00000000000E+00  0.00000000000E+00  0.12500000000E+03  0.12500000000E+03  0.00000000000E+00 0.  1.
         11   -1    0    0    0    0 -0.00000000000E+00 -0.00000000000E+00 -0.12500000000E+03  0.12500000000E+03  0.00000000000E+00 0. -1.
         24    1    1    2    0    0 -0.17563054131E+02  0.42171731405E+02  0.84088454888E+02  0.12500000000E+03  0.80419002446E+02 0.  1.
        -24    1    1    2    0    0  0.17563054131E+02 -0.42171731405E+02 -0.84088454888E+02  0.12500000000E+03  0.80419002446E+02 0. -1.
</event>
<event>
 4    1  0.1699921E-001  0.1250000E+03  0.7546771E-02  0.1126479E+00
        -11   -1    0    0    0    0  0.00000000000E+00  0.00000000000E+00  0.12500000000E+03  0.12500000000E+03  0.00000000000E+00 0.  1.
         11   -1    0    0    0    0 -0.00000000000E+00 -0.00000000000E+00 -0.12500000000E+03  0.12500000000E+03  0.00000000000E+00 0. -1.
         24    1    1    2    0    0 -0.92075253272E+02  0.13201822480E+02  0.22486521823E+02  0.12500000000E+03  0.80419002446E+02 0.  0.
        -24    1    1    2    0    0  0.92075253272E+02 -0.13201822480E+02 -0.22486521823E+02  0.12500000000E+03  0.80419002446E+02 0. -1.
</event>
<event>
 4    1  0.1699921E-001  0.1250000E+03  0.7546771E-02  0.1126479E+00
        -11   -1    0    0    0    0  0.00000000000E+00  0.00000000000E+00  0.12500000000E+03  0.12500000000E+03  0.00000000000E+00 0.  1.
         11   -1    0    0    0    0 -0.00000000000E+00 -0.00000000000E+00 -0.12500000000E+03  0.12500000000E+03  0.00000000000E+00 0. -1.
         24    1    1    2    0    0 -0.10789243120E+02 -0.58362300055E+02  0.75068090497E+02  0.12500000000E+03  0.80419002446E+02 0.  1.
        -24    1    1    2    0    0  0.10789243120E+02  0.58362300055E+02 -0.75068090497E+02  0.12500000000E+03  0.80419002446E+02 0. -1.
</event>
<event>
 4    1  0.1699921E-001  0.1250000E+03  0.7546771E-02  0.1126479E+00
        -11   -1    0    0    0    0  0.00000000000E+00  0.00000000000E+00  0.12500000000E+03  0.12500000000E+03  0.00000000000E+00 0.  1.
         11   -1    0    0    0    0 -0.00000000000E+00 -0.00000000000E+00 -0.12500000000E+03  0.12500000000E+03  0.00000000000E+00 0. -1.
         24    1    1    2    0    0 -0.57042122169E+02 -0.57718148435E+02  0.50720761877E+02  0.12500000000E+03  0.80419002446E+02 0.  1.
        -24    1    1    2    0    0  0.57042122169E+02  0.57718148435E+02 -0.50720761877E+02  0.12500000000E+03  0.80419002446E+02 0. -1.
</event>
<event>
 4    1  0.1699921E-001  0.1250000E+03  0.7546771E-02  0.1126479E+00
        -11   -1    0    0    0    0  0.00000000000E+00  0.00000000000E+00  0.12500000000E+03  0.12500000000E+03  0.00000000000E+00 0.  1.
         11   -1    0    0    0    0 -0.00000000000E+00 -0.00000000000E+00 -0.12500000000E+03  0.12500000000E+03  0.00000000000E+00 0. -1.
         24    1    1    2    0    0  0.68939116098E+02  0.29874134666E+02  0.59268190416E+02  0.12500000000E+03  0.80419002446E+02 0.  1.
        -24    1    1    2    0    0 -0.68939116098E+02 -0.29874134666E+02 -0.59268190416E+02  0.12500000000E+03  0.80419002446E+02 0. -1.
</event>
<event>
 4    1  0.1699921E-001  0.1250000E+03  0.7546771E-02  0.1126479E+00
        -11   -1    0    0    0    0  0.00000000000E+00  0.00000000000E+00  0.12500000000E+03  0.12500000000E+03  0.00000000000E+00 0.  1.
         11   -1    0    0    0    0 -0.00000000000E+00 -0.00000000000E+00 -0.12500000000E+03  0.12500000000E+03  0.00000000000E+00 0. -1.
         24    1    1    2    0    0 -0.47855263124E+02  0.77485517153E+01  0.82508289179E+02  0.12500000000E+03  0.80419002446E+02 0.  1.
        -24    1    1    2    0    0  0.47855263124E+02 -0.77485517153E+01 -0.82508289179E+02  0.12500000000E+03  0.80419002446E+02 0. -1.
</event>
<event>
 4    1  0.1699921E-001  0.1250000E+03  0.7546771E-02  0.1126479E+00
        -11   -1    0    0    0    0  0.00000000000E+00  0.00000000000E+00  0.12500000000E+03  0.12500000000E+03  0.00000000000E+00 0.  1.
         11   -1    0    0    0    0 -0.00000000000E+00 -0.00000000000E+00 -0.12500000000E+03  0.12500000000E+03  0.00000000000E+00 0. -1.
         24    1    1    2    0    0  0.12381542024E+02 -0.20324816067E+02  0.92689715258E+02  0.12500000000E+03  0.80419002446E+02 0.  1.
        -24    1    1    2    0    0 -0.12381542024E+02  0.20324816067E+02 -0.92689715258E+02  0.12500000000E+03  0.80419002446E+02 0. -1.
</event>
<event>
 4    1  0.1699921E-001  0.1250000E+03  0.7546771E-02  0.1126479E+00
        -11   -1    0    0    0    0  0.00000000000E+00  0.00000000000E+00  0.12500000000E+03  0.12500000000E+03  0.00000000000E+00 0.  1.
         11   -1    0    0    0    0 -0.00000000000E+00 -0.00000000000E+00 -0.12500000000E+03  0.12500000000E+03  0.00000000000E+00 0. -1.
         24    1    1    2    0    0  0.39245638520E+02  0.19115648177E+02  0.85159590755E+02  0.12500000000E+03  0.80419002446E+02 0.  1.
        -24    1    1    2    0    0 -0.39245638520E+02 -0.19115648177E+02 -0.85159590755E+02  0.12500000000E+03  0.80419002446E+02 0. -1.
</event>
<event>
 4    1  0.1699921E-001  0.1250000E+03  0.7546771E-02  0.1126479E+00
        -11   -1    0    0    0    0  0.00000000000E+00  0.00000000000E+00  0.12500000000E+03  0.12500000000E+03  0.00000000000E+00 0.  1.
         11   -1    0    0    0    0 -0.00000000000E+00 -0.00000000000E+00 -0.12500000000E+03  0.12500000000E+03  0.00000000000E+00 0. -1.
         24    1    1    2    0    0 -0.17508185881E+02  0.17935222504E+02  0.92355699697E+02  0.12500000000E+03  0.80419002446E+02 0.  1.
        -24    1    1    2    0    0  0.17508185881E+02 -0.17935222504E+02 -0.92355699697E+02  0.12500000000E+03  0.80419002446E+02 0. -1.
</event>
<event>
 4    1  0.1699921E-001  0.1250000E+03  0.7546771E-02  0.1126479E+00
        -11   -1    0    0    0    0  0.00000000000E+00  0.00000000000E+00  0.12500000000E+03  0.12500000000E+03  0.00000000000E+00 0.  1.
         11   -1    0    0    0    0 -0.00000000000E+00 -0.00000000000E+00 -0.12500000000E+03  0.12500000000E+03  0.00000000000E+00 0. -1.
         24    1    1    2    0    0 -0.60299016942E+02 -0.52940535645E+02  0.52145107989E+02  0.12500000000E+03  0.80419002446E+02 0.  1.
        -24    1    1    2    0    0  0.60299016942E+02  0.52940535645E+02 -0.52145107989E+02  0.12500000000E+03  0.80419002446E+02 0. -1.
</event>
<event>
 4    1  0.1699921E-001  0.1250000E+03  0.7546771E-02  0.1126479E+00
        -11   -1    0    0    0    0  0.00000000000E+00  0.00000000000E+00  0.12500000000E+03  0.12500000000E+03  0.00000000000E+00 0.  1.
         11   -1    0    0    0    0 -0.00000000000E+00 -0.00000000000E+00 -0.12500000000E+03  0.12500000000E+03  0.00000000000E+00 0. -1.
         24    1    1    2    0    0  0.69080020023E+02  0.11490760546E+02  0.65220374894E+02  0.12500000000E+03  0.80419002446E+02 0.  1.
        -24    1    1    2    0    0 -0.69080020023E+02 -0.11490760546E+02 -0.65220374894E+02  0.12500000000E+03  0.80419002446E+02 0. -1.
</event>
<event>
 4    1  0.1699921E-001  0.1250000E+03  0.7546771E-02  0.1126479E+00
        -11   -1    0    0    0    0  0.00000000000E+00  0.00000000000E+00  0.12500000000E+03  0.12500000000E+03  0.00000000000E+00 0.  1.
         11   -1    0    0    0    0 -0.00000000000E+00 -0.00000000000E+00 -0.12500000000E+03  0.12500000000E+03  0.00000000000E+00 0. -1.
         24    1    1    2    0    0 -0.34098936624E+02 -0.87907646533E+02  0.16349074831E+02  0.12500000000E+03  0.80419002446E+02 0. -1.
        -24    1    1    2    0    0  0.34098936624E+02  0.87907646533E+02 -0.16349074831E+02  0.12500000000E+03  0.80419002446E+02 0.  0.
</event>
<event>
 4    1  0.1699921E-001  0.1250000E+03  0.7546771E-02  0.1126479E+00
        -11   -1    0    0    0    0  0.00000000000E+00  0.00000000000E+00  0.12500000000E+03  0.12500000000E+03  0.00000000000E+00 0.  1.
         11   -1    0    0    0    0 -0.00000000000E+00 -0.00000000000E+00 -0.12500000000E+03  0.12500000000E+03  0.00000000000E+00 0. -1.
         24    1    1    2    0    0 -0.37849260602E+02 -0.22587480149E+02  0.84941293009E+02  0.12500000000E+03  0.80419002446E+02 0.  1.
        -24    1    1    2    0    0  0.37849260602E+02  0.22587480149E+02 -0.84941293009E+02  0.12500000000E+03  0.80419002446E+02 0. -1.
</event>
<event>
 4    1  0.1699921E-001  0.1250000E+03  0.7546771E-02  0.1126479E+00
        -11   -1    0    0    0    0  0.00000000000E+00  0.00000000000E+00  0.12500000000E+03  0.12500000000E+03  0.00000000000E+00 0.  1.
         11   -1    0    0    0    0 -0.00000000000E+00 -0.00000000000E+00 -0.12500000000E+03  0.12500000000E+03  0.00000000000E+00 0. -1.
         24    1    1    2    0    0  0.59759881024E+02  0.29429663855E+02  0.68705425921E+02  0.12500000000E+03  0.80419002446E+02 0.  1.
        -24    1    1    2    0    0 -0.59759881024E+02 -0.29429663855E+02 -0.68705425921E+02  0.12500000000E+03  0.80419002446E+02 0. -1.
</event>
<event>
 4    1  0.1699921E-001  0.1250000E+03  0.7546771E-02  0.1126479E+00
        -11   -1    0    0    0    0  0.00000000000E+00  0.00000000000E+00  0.12500000000E+03  0.12500000000E+03  0.00000000000E+00 0.  1.
         11   -1    0    0    0    0 -0.00000000000E+00 -0.00000000000E+00 -0.12500000000E+03  0.12500000000E+03  0.00000000000E+00 0. -1.
         24    1    1    2    0    0  0.21185235283E+02 -0.43123557299E+02  0.82760670959E+02  0.12500000000E+03  0.80419002446E+02 0.  1.
        -24    1    1    2    0    0 -0.21185235283E+02  0.43123557299E+02 -0.82760670959E+02  0.12500000000E+03  0.80419002446E+02 0. -1.
</event>
<event>
 4    1  0.1699921E-001  0.1250000E+03  0.7546771E-02  0.1126479E+00
        -11   -1    0    0    0    0  0.00000000000E+00  0.00000000000E+00  0.12500000000E+03  0.12500000000E+03  0.00000000000E+00 0.  1.
         11   -1    0    0    0    0 -0.00000000000E+00 -0.00000000000E+00 -0.12500000000E+03  0.12500000000E+03  0.00000000000E+00 0. -1.
         24    1    1    2    0    0  0.98607629962E+01  0.80952470967E+00  0.95183475816E+02  0.12500000000E+03  0.80419002446E+02 0.  1.
        -24    1    1    2    0    0 -0.98607629962E+01 -0.80952470967E+00 -0.95183475816E+02  0.12500000000E+03  0.80419002446E+02 0. -1.
</event>
<event>
 4    1  0.1699921E-001  0.1250000E+03  0.7546771E-02  0.1126479E+00
        -11   -1    0    0    0    0  0.00000000000E+00  0.00000000000E+00  0.12500000000E+03  0.12500000000E+03  0.00000000000E+00 0.  1.
         11   -1    0    0    0    0 -0.00000000000E+00 -0.00000000000E+00 -0.12500000000E+03  0.12500000000E+03  0.00000000000E+00 0. -1.
         24    1    1    2    0    0 -0.22925391544E+02  0.61070400232E+02  0.70018688103E+02  0.12500000000E+03  0.80419002446E+02 0.  1.
        -24    1    1    2    0    0  0.22925391544E+02 -0.61070400232E+02 -0.70018688103E+02  0.12500000000E+03  0.80419002446E+02 0. -1.
</event>
<event>
 4    1  0.1699921E-001  0.1250000E+03  0.7546771E-02  0.1126479E+00
        -11   -1    0    0    0    0  0.00000000000E+00  0.00000000000E+00  0.12500000000E+03  0.12500000000E+03  0.00000000000E+00 0.  1.
         11   -1    0    0    0    0 -0.00000000000E+00 -0.00000000000E+00 -0.12500000000E+03  0.12500000000E+03  0.00000000000E+00 0. -1.
         24    1    1    2    0    0 -0.69950255648E+02 -0.30439200831E+02  0.57777165327E+02  0.12500000000E+03  0.80419002446E+02 0.  1.
        -24    1    1    2    0    0  0.69950255648E+02  0.30439200831E+02 -0.57777165327E+02  0.12500000000E+03  0.80419002446E+02 0.  0.
</event>
<event>
 4    1  0.1699921E-001  0.1250000E+03  0.7546771E-02  0.1126479E+00
        -11   -1    0    0    0    0  0.00000000000E+00  0.00000000000E+00  0.12500000000E+03  0.12500000000E+03  0.00000000000E+00 0.  1.
         11   -1    0    0    0    0 -0.00000000000E+00 -0.00000000000E+00 -0.12500000000E+03  0.12500000000E+03  0.00000000000E+00 0. -1.
         24    1    1    2    0    0  0.18403298604E+02 -0.93475525633E+02  0.90237882155E+01  0.12500000000E+03  0.80419002446E+02 0. -1.
        -24    1    1    2    0    0 -0.18403298604E+02  0.93475525633E+02 -0.90237882155E+01  0.12500000000E+03  0.80419002446E+02 0.  1.
</event>
<event>
 4    1  0.1699921E-001  0.1250000E+03  0.7546771E-02  0.1126479E+00
        -11   -1    0    0    0    0  0.00000000000E+00  0.00000000000E+00  0.12500000000E+03  0.12500000000E+03  0.00000000000E+00 0.  1.
         11   -1    0    0    0    0 -0.00000000000E+00 -0.00000000000E+00 -0.12500000000E+03  0.12500000000E+03  0.00000000000E+00 0. -1.
         24    1    1    2    0    0 -0.51189033453E+02  0.63467340912E+02  0.50093547861E+02  0.12500000000E+03  0.80419002446E+02 0.  1.
        -24    1    1    2    0    0  0.51189033453E+02 -0.63467340912E+02 -0.50093547861E+02  0.12500000000E+03  0.80419002446E+02 0.  0.
</event>
<event>
 4    1  0.1699921E-001  0.1250000E+03  0.7546771E-02  0.1126479E+00
        -11   -1    0    0    0    0  0.00000000000E+00  0.00000000000E+00  0.12500000000E+03  0.12500000000E+03  0.00000000000E+00 0.  1.
         11   -1    0    0    0    0 -0.00000000000E+00 -0.00000000000E+00 -0.12500000000E+03  0.12500000000E+03  0.00000000000E+00 0. -1.
         24    1    1    2    0    0 -0.78367654709E+02 -0.15382226693E+02  0.52722688124E+02  0.12500000000E+03  0.80419002446E+02 0.  1.
        -24    1    1    2    0    0  0.78367654709E+02  0.15382226693E+02 -0.52722688124E+02  0.12500000000E+03  0.80419002446E+02 0. -1.
</event>
<event>
 4    1  0.1699921E-001  0.1250000E+03  0.7546771E-02  0.1126479E+00
        -11   -1    0    0    0    0  0.00000000000E+00  0.00000000000E+00  0.12500000000E+03  0.12500000000E+03  0.00000000000E+00 0.  1.
         11   -1    0    0    0    0 -0.00000000000E+00 -0.00000000000E+00 -0.12500000000E+03  0.12500000000E+03  0.00000000000E+00 0. -1.
         24    1    1    2    0    0  0.19115367819E+02  0.28328506101E+02  0.89386142667E+02  0.12500000000E+03  0.80419002446E+02 0.  1.
        -24    1    1    2    0    0 -0.19115367819E+02 -0.28328506101E+02 -0.89386142667E+02  0.12500000000E+03  0.80419002446E+02 0. -1.
</event>
<event>
 4    1  0.1699921E-001  0.1250000E+03  0.7546771E-02  0.1126479E+00
        -11   -1    0    0    0    0  0.00000000000E+00  0.00000000000E+00  0.12500000000E+03  0.12500000000E+03  0.00000000000E+00 0.  1.
         11   -1    0    0    0    0 -0.00000000000E+00 -0.00000000000E+00 -0.12500000000E+03  0.12500000000E+03  0.00000000000E+00 0. -1.
         24    1    1    2    0    0 -0.20257391150E+02 -0.25368423049E+01  0.93493243502E+02  0.12500000000E+03  0.80419002446E+02 0.  1.
        -24    1    1    2    0    0  0.20257391150E+02  0.25368423049E+01 -0.93493243502E+02  0.12500000000E+03  0.80419002446E+02 0. -1.
</event>
<event>
 4    1  0.1699921E-001  0.1250000E+03  0.7546771E-02  0.1126479E+00
        -11   -1    0    0    0    0  0.00000000000E+00  0.00000000000E+00  0.12500000000E+03  0.12500000000E+03  0.00000000000E+00 0.  1.
         11   -1    0    0    0    0 -0.00000000000E+00 -0.00000000000E+00 -0.12500000000E+03  0.12500000000E+03  0.00000000000E+00 0. -1.
         24    1    1    2    0    0 -0.24956719420E+02  0.48738565962E+02  0.78482471861E+02  0.12500000000E+03  0.80419002446E+02 0.  1.
        -24    1    1    2    0    0  0.24956719420E+02 -0.48738565962E+02 -0.78482471861E+02  0.12500000000E+03  0.80419002446E+02 0. -1.
</event>
<event>
 4    1  0.1699921E-001  0.1250000E+03  0.7546771E-02  0.1126479E+00
        -11   -1    0    0    0    0  0.00000000000E+00  0.00000000000E+00  0.12500000000E+03  0.12500000000E+03  0.00000000000E+00 0.  1.
         11   -1    0    0    0    0 -0.00000000000E+00 -0.00000000000E+00 -0.12500000000E+03  0.12500000000E+03  0.00000000000E+00 0. -1.
         24    1    1    2    0    0  0.30008733912E+02 -0.11870471660E+02  0.90090797739E+02  0.12500000000E+03  0.80419002446E+02 0.  1.
        -24    1    1    2    0    0 -0.30008733912E+02  0.11870471660E+02 -0.90090797739E+02  0.12500000000E+03  0.80419002446E+02 0. -1.
</event>
<event>
 4    1  0.1699921E-001  0.1250000E+03  0.7546771E-02  0.1126479E+00
        -11   -1    0    0    0    0  0.00000000000E+00  0.00000000000E+00  0.12500000000E+03  0.12500000000E+03  0.00000000000E+00 0.  1.
         11   -1    0    0    0    0 -0.00000000000E+00 -0.00000000000E+00 -0.12500000000E+03  0.12500000000E+03  0.00000000000E+00 0. -1.
         24    1    1    2    0    0  0.70543610116E+02 -0.10538955579E+02  0.63799008870E+02  0.12500000000E+03  0.80419002446E+02 0.  1.
        -24    1    1    2    0    0 -0.70543610116E+02  0.10538955579E+02 -0.63799008870E+02  0.12500000000E+03  0.80419002446E+02 0. -1.
</event>
<event>
 4    1  0.1699921E-001  0.1250000E+03  0.7546771E-02  0.1126479E+00
        -11   -1    0    0    0    0  0.00000000000E+00  0.00000000000E+00  0.12500000000E+03  0.12500000000E+03  0.00000000000E+00 0.  1.
         11   -1    0    0    0    0 -0.00000000000E+00 -0.00000000000E+00 -0.12500000000E+03  0.12500000000E+03  0.00000000000E+00 0. -1.
         24    1    1    2    0    0 -0.74134323863E+02  0.58845561003E+02  0.14109784594E+02  0.12500000000E+03  0.80419002446E+02 0.  1.
        -24    1    1    2    0    0  0.74134323863E+02 -0.58845561003E+02 -0.14109784594E+02  0.12500000000E+03  0.80419002446E+02 0.  0.
</event>
<event>
 4    1  0.1699921E-001  0.1250000E+03  0.7546771E-02  0.1126479E+00
        -11   -1    0    0    0    0  0.00000000000E+00  0.00000000000E+00  0.12500000000E+03  0.12500000000E+03  0.00000000000E+00 0.  1.
         11   -1    0    0    0    0 -0.00000000000E+00 -0.00000000000E+00 -0.12500000000E+03  0.12500000000E+03  0.00000000000E+00 0. -1.
         24    1    1    2    0    0  0.51315163572E+02  0.96106744539E+01  0.80200828984E+02  0.12500000000E+03  0.80419002446E+02 0.  1.
        -24    1    1    2    0    0 -0.51315163572E+02 -0.96106744539E+01 -0.80200828984E+02  0.12500000000E+03  0.80419002446E+02 0. -1.
</event>
<event>
 4    1  0.1699921E-001  0.1250000E+03  0.7546771E-02  0.1126479E+00
        -11   -1    0    0    0    0  0.00000000000E+00  0.00000000000E+00  0.12500000000E+03  0.12500000000E+03  0.00000000000E+00 0.  1.
         11   -1    0    0    0    0 -0.00000000000E+00 -0.00000000000E+00 -0.12500000000E+03  0.12500000000E+03  0.00000000000E+00 0. -1.
         24    1    1    2    0    0 -0.52691531518E+02  0.22022046600E+01  0.79853220640E+02  0.12500000000E+03  0.80419002446E+02 0.  1.
        -24    1    1    2    0    0  0.52691531518E+02 -0.22022046600E+01 -0.79853220640E+02  0.12500000000E+03  0.80419002446E+02 0. -1.
</event>
<event>
 4    1  0.1699921E-001  0.1250000E+03  0.7546771E-02  0.1126479E+00
        -11   -1    0    0    0    0  0.00000000000E+00  0.00000000000E+00  0.12500000000E+03  0.12500000000E+03  0.00000000000E+00 0.  1.
         11   -1    0    0    0    0 -0.00000000000E+00 -0.00000000000E+00 -0.12500000000E+03  0.12500000000E+03  0.00000000000E+00 0. -1.
         24    1    1    2    0    0 -0.48824164200E+01  0.52035673587E+01  0.95429916390E+02  0.12500000000E+03  0.80419002446E+02 0.  1.
        -24    1    1    2    0    0  0.48824164200E+01 -0.52035673587E+01 -0.95429916390E+02  0.12500000000E+03  0.80419002446E+02 0.  0.
</event>
<event>
 4    1  0.1699921E-001  0.1250000E+03  0.7546771E-02  0.1126479E+00
        -11   -1    0    0    0    0  0.00000000000E+00  0.00000000000E+00  0.12500000000E+03  0.12500000000E+03  0.00000000000E+00 0.  1.
         11   -1    0    0    0    0 -0.00000000000E+00 -0.00000000000E+00 -0.12500000000E+03  0.12500000000E+03  0.00000000000E+00 0. -1.
         24    1    1    2    0    0  0.44374562543E+01 -0.69674529262E+01  0.95339119082E+02  0.12500000000E+03  0.80419002446E+02 0.  1.
        -24    1    1    2    0    0 -0.44374562543E+01  0.69674529262E+01 -0.95339119082E+02  0.12500000000E+03  0.80419002446E+02 0.  0.
</event>
<event>
 4    1  0.1699921E-001  0.1250000E+03  0.7546771E-02  0.1126479E+00
        -11   -1    0    0    0    0  0.00000000000E+00  0.00000000000E+00  0.12500000000E+03  0.12500000000E+03  0.00000000000E+00 0.  1.
         11   -1    0    0    0    0 -0.00000000000E+00 -0.00000000000E+00 -0.12500000000E+03  0.12500000000E+03  0.00000000000E+00 0. -1.
         24    1    1    2    0    0 -0.75936172118E+02  0.56436866924E+02  0.14365300607E+02  0.12500000000E+03  0.80419002446E+02 0.  1.
        -24    1    1    2    0    0  0.75936172118E+02 -0.56436866924E+02 -0.14365300607E+02  0.12500000000E+03  0.80419002446E+02 0. -1.
</event>
<event>
 4    1  0.1699921E-001  0.1250000E+03  0.7546771E-02  0.1126479E+00
        -11   -1    0    0    0    0  0.00000000000E+00  0.00000000000E+00  0.12500000000E+03  0.12500000000E+03  0.00000000000E+00 0.  1.
         11   -1    0    0    0    0 -0.00000000000E+00 -0.00000000000E+00 -0.12500000000E+03  0.12500000000E+03  0.00000000000E+00 0. -1.
         24    1    1    2    0    0  0.74606729813E+02 -0.52664340569E+02  0.28602222722E+02  0.12500000000E+03  0.80419002446E+02 0.  0.
        -24    1    1    2    0    0 -0.74606729813E+02  0.52664340569E+02 -0.28602222722E+02  0.12500000000E+03  0.80419002446E+02 0.  1.
</event>
<event>
 4    1  0.1699921E-001  0.1250000E+03  0.7546771E-02  0.1126479E+00
        -11   -1    0    0    0    0  0.00000000000E+00  0.00000000000E+00  0.12500000000E+03  0.12500000000E+03  0.00000000000E+00 0.  1.
         11   -1    0    0    0    0 -0.00000000000E+00 -0.00000000000E+00 -0.12500000000E+03  0.12500000000E+03  0.00000000000E+00 0. -1.
         24    1    1    2    0    0 -0.92660676499E+02 -0.10694859559E+02  0.21386983316E+02  0.12500000000E+03  0.80419002446E+02 0.  1.
        -24    1    1    2    0    0  0.92660676499E+02  0.10694859559E+02 -0.21386983316E+02  0.12500000000E+03  0.80419002446E+02 0.  0.
</event>
<event>
 4    1  0.1699921E-001  0.1250000E+03  0.7546771E-02  0.1126479E+00
        -11   -1    0    0    0    0  0.00000000000E+00  0.00000000000E+00  0.12500000000E+03  0.12500000000E+03  0.00000000000E+00 0.  1.
         11   -1    0    0    0    0 -0.00000000000E+00 -0.00000000000E+00 -0.12500000000E+03  0.12500000000E+03  0.00000000000E+00 0. -1.
         24    1    1    2    0    0 -0.19008876341E+02  0.73862048428E+02 -0.57800038650E+02  0.12500000000E+03  0.80419002446E+02 0.  0.
        -24    1    1    2    0    0  0.19008876341E+02 -0.73862048428E+02  0.57800038650E+02  0.12500000000E+03  0.80419002446E+02 0.  0.
</event>
<event>
 4    1  0.1699921E-001  0.1250000E+03  0.7546771E-02  0.1126479E+00
        -11   -1    0    0    0    0  0.00000000000E+00  0.00000000000E+00  0.12500000000E+03  0.12500000000E+03  0.00000000000E+00 0.  1.
         11   -1    0    0    0    0 -0.00000000000E+00 -0.00000000000E+00 -0.12500000000E+03  0.12500000000E+03  0.00000000000E+00 0. -1.
         24    1    1    2    0    0  0.36963495347E+02  0.88220943645E+02  0.29238946372E+01  0.12500000000E+03  0.80419002446E+02 0. -1.
        -24    1    1    2    0    0 -0.36963495347E+02 -0.88220943645E+02 -0.29238946372E+01  0.12500000000E+03  0.80419002446E+02 0.  1.
</event>
<event>
 4    1  0.1699921E-001  0.1250000E+03  0.7546771E-02  0.1126479E+00
        -11   -1    0    0    0    0  0.00000000000E+00  0.00000000000E+00  0.12500000000E+03  0.12500000000E+03  0.00000000000E+00 0.  1.
         11   -1    0    0    0    0 -0.00000000000E+00 -0.00000000000E+00 -0.12500000000E+03  0.12500000000E+03  0.00000000000E+00 0. -1.
         24    1    1    2    0    0  0.45530674473E+02  0.34572105178E+02  0.76743151298E+02  0.12500000000E+03  0.80419002446E+02 0.  1.
        -24    1    1    2    0    0 -0.45530674473E+02 -0.34572105178E+02 -0.76743151298E+02  0.12500000000E+03  0.80419002446E+02 0. -1.
</event>
<event>
 4    1  0.1699921E-001  0.1250000E+03  0.7546771E-02  0.1126479E+00
        -11   -1    0    0    0    0  0.00000000000E+00  0.00000000000E+00  0.12500000000E+03  0.12500000000E+03  0.00000000000E+00 0.  1.
         11   -1    0    0    0    0 -0.00000000000E+00 -0.00000000000E+00 -0.12500000000E+03  0.12500000000E+03  0.00000000000E+00 0. -1.
         24    1    1    2    0    0  0.21414126526E+02 -0.36425575001E+02  0.85862661947E+02  0.12500000000E+03  0.80419002446E+02 0.  1.
        -24    1    1    2    0    0 -0.21414126526E+02  0.36425575001E+02 -0.85862661947E+02  0.12500000000E+03  0.80419002446E+02 0. -1.
</event>
<event>
 4    1  0.1699921E-001  0.1250000E+03  0.7546771E-02  0.1126479E+00
        -11   -1    0    0    0    0  0.00000000000E+00  0.00000000000E+00  0.12500000000E+03  0.12500000000E+03  0.00000000000E+00 0.  1.
         11   -1    0    0    0    0 -0.00000000000E+00 -0.00000000000E+00 -0.12500000000E+03  0.12500000000E+03  0.00000000000E+00 0. -1.
         24    1    1    2    0    0 -0.44336018355E+02 -0.48627017106E+01  0.84666732866E+02  0.12500000000E+03  0.80419002446E+02 0.  1.
        -24    1    1    2    0    0  0.44336018355E+02  0.48627017106E+01 -0.84666732866E+02  0.12500000000E+03  0.80419002446E+02 0. -1.
</event>
<event>
 4    1  0.1699921E-001  0.1250000E+03  0.7546771E-02  0.1126479E+00
        -11   -1    0    0    0    0  0.00000000000E+00  0.00000000000E+00  0.12500000000E+03  0.12500000000E+03  0.00000000000E+00 0.  1.
         11   -1    0    0    0    0 -0.00000000000E+00 -0.00000000000E+00 -0.12500000000E+03  0.12500000000E+03  0.00000000000E+00 0. -1.
         24    1    1    2    0    0  0.75729504665E+02  0.11807315281E+02 -0.57301077430E+02  0.12500000000E+03  0.80419002446E+02 0.  0.
        -24    1    1    2    0    0 -0.75729504665E+02 -0.11807315281E+02  0.57301077430E+02  0.12500000000E+03  0.80419002446E+02 0.  0.
</event>
<event>
 4    1  0.1699921E-001  0.1250000E+03  0.7546771E-02  0.1126479E+00
        -11   -1    0    0    0    0  0.00000000000E+00  0.00000000000E+00  0.12500000000E+03  0.12500000000E+03  0.00000000000E+00 0.  1.
         11   -1    0    0    0    0 -0.00000000000E+00 -0.00000000000E+00 -0.12500000000E+03  0.12500000000E+03  0.00000000000E+00 0. -1.
         24    1    1    2    0    0 -0.83699503731E+02 -0.42464469252E+02 -0.18680095607E+02  0.12500000000E+03  0.80419002446E+02 0. -1.
        -24    1    1    2    0    0  0.83699503731E+02  0.42464469252E+02  0.18680095607E+02  0.12500000000E+03  0.80419002446E+02 0.  1.
</event>
<event>
 4    1  0.1699921E-001  0.1250000E+03  0.7546771E-02  0.1126479E+00
        -11   -1    0    0    0    0  0.00000000000E+00  0.00000000000E+00  0.12500000000E+03  0.12500000000E+03  0.00000000000E+00 0.  1.
         11   -1    0    0    0    0 -0.00000000000E+00 -0.00000000000E+00 -0.12500000000E+03  0.12500000000E+03  0.00000000000E+00 0. -1.
         24    1    1    2    0    0 -0.42393303188E+01  0.25504480946E+02  0.92137579607E+02  0.12500000000E+03  0.80419002446E+02 0.  1.
        -24    1    1    2    0    0  0.42393303188E+01 -0.25504480946E+02 -0.92137579607E+02  0.12500000000E+03  0.80419002446E+02 0. -1.
</event>
<event>
 4    1  0.1699921E-001  0.1250000E+03  0.7546771E-02  0.1126479E+00
        -11   -1    0    0    0    0  0.00000000000E+00  0.00000000000E+00  0.12500000000E+03  0.12500000000E+03  0.00000000000E+00 0.  1.
         11   -1    0    0    0    0 -0.00000000000E+00 -0.00000000000E+00 -0.12500000000E+03  0.12500000000E+03  0.00000000000E+00 0. -1.
         24    1    1    2    0    0 -0.15502691438E+02 -0.36538618197E+02  0.87076862507E+02  0.12500000000E+03  0.80419002446E+02 0.  1.
        -24    1    1    2    0    0  0.15502691438E+02  0.36538618197E+02 -0.87076862507E+02  0.12500000000E+03  0.80419002446E+02 0. -1.
</event>
<event>
 4    1  0.1699921E-001  0.1250000E+03  0.7546771E-02  0.1126479E+00
        -11   -1    0    0    0    0  0.00000000000E+00  0.00000000000E+00  0.12500000000E+03  0.12500000000E+03  0.00000000000E+00 0.  1.
         11   -1    0    0    0    0 -0.00000000000E+00 -0.00000000000E+00 -0.12500000000E+03  0.12500000000E+03  0.00000000000E+00 0. -1.
         24    1    1    2    0    0 -0.15193929870E+02  0.13604715351E+02  0.93497808856E+02  0.12500000000E+03  0.80419002446E+02 0.  1.
        -24    1    1    2    0    0  0.15193929870E+02 -0.13604715351E+02 -0.93497808856E+02  0.12500000000E+03  0.80419002446E+02 0. -1.
</event>
<event>
 4    1  0.1699921E-001  0.1250000E+03  0.7546771E-02  0.1126479E+00
        -11   -1    0    0    0    0  0.00000000000E+00  0.00000000000E+00  0.12500000000E+03  0.12500000000E+03  0.00000000000E+00 0.  1.
         11   -1    0    0    0    0 -0.00000000000E+00 -0.00000000000E+00 -0.12500000000E+03  0.12500000000E+03  0.00000000000E+00 0. -1.
         24    1    1    2    0    0 -0.86490678603E+02  0.19298991976E+01  0.40907481583E+02  0.12500000000E+03  0.80419002446E+02 0.  1.
        -24    1    1    2    0    0  0.86490678603E+02 -0.19298991976E+01 -0.40907481583E+02  0.12500000000E+03  0.80419002446E+02 0. -1.
</event>
<event>
 4    1  0.1699921E-001  0.1250000E+03  0.7546771E-02  0.1126479E+00
        -11   -1    0    0    0    0  0.00000000000E+00  0.00000000000E+00  0.12500000000E+03  0.12500000000E+03  0.00000000000E+00 0.  1.
         11   -1    0    0    0    0 -0.00000000000E+00 -0.00000000000E+00 -0.12500000000E+03  0.12500000000E+03  0.00000000000E+00 0. -1.
         24    1    1    2    0    0 -0.10164621604E+02  0.95149421230E+02 -0.10257449971E+01  0.12500000000E+03  0.80419002446E+02 0. -1.
        -24    1    1    2    0    0  0.10164621604E+02 -0.95149421230E+02  0.10257449971E+01  0.12500000000E+03  0.80419002446E+02 0.  1.
</event>
<event>
 4    1  0.1699921E-001  0.1250000E+03  0.7546771E-02  0.1126479E+00
        -11   -1    0    0    0    0  0.00000000000E+00  0.00000000000E+00  0.12500000000E+03  0.12500000000E+03  0.00000000000E+00 0.  1.
         11   -1    0    0    0    0 -0.00000000000E+00 -0.00000000000E+00 -0.12500000000E+03  0.12500000000E+03  0.00000000000E+00 0. -1.
         24    1    1    2    0    0 -0.30632568986E+02  0.56760786488E+02  0.70694008800E+02  0.12500000000E+03  0.80419002446E+02 0.  1.
        -24    1    1    2    0    0  0.30632568986E+02 -0.56760786488E+02 -0.70694008800E+02  0.12500000000E+03  0.80419002446E+02 0. -1.
</event>
<event>
 4    1  0.1699921E-001  0.1250000E+03  0.7546771E-02  0.1126479E+00
        -11   -1    0    0    0    0  0.00000000000E+00  0.00000000000E+00  0.12500000000E+03  0.12500000000E+03  0.00000000000E+00 0.  1.
         11   -1    0    0    0    0 -0.00000000000E+00 -0.00000000000E+00 -0.12500000000E+03  0.12500000000E+03  0.00000000000E+00 0. -1.
         24    1    1    2    0    0  0.59477772092E+02 -0.24489305586E+02  0.70855152138E+02  0.12500000000E+03  0.80419002446E+02 0.  1.
        -24    1    1    2    0    0 -0.59477772092E+02  0.24489305586E+02 -0.70855152138E+02  0.12500000000E+03  0.80419002446E+02 0. -1.
</event>
<event>
 4    1  0.1699921E-001  0.1250000E+03  0.7546771E-02  0.1126479E+00
        -11   -1    0    0    0    0  0.00000000000E+00  0.00000000000E+00  0.12500000000E+03  0.12500000000E+03  0.00000000000E+00 0.  1.
         11   -1    0    0    0    0 -0.00000000000E+00 -0.00000000000E+00 -0.12500000000E+03  0.12500000000E+03  0.00000000000E+00 0. -1.
         24    1    1    2    0    0 -0.40465619760E+02 -0.86706026307E+02  0.15435883665E+01  0.12500000000E+03  0.80419002446E+02 0. -1.
        -24    1    1    2    0    0  0.40465619760E+02  0.86706026307E+02 -0.15435883665E+01  0.12500000000E+03  0.80419002446E+02 0.  1.
</event>
<event>
 4    1  0.1699921E-001  0.1250000E+03  0.7546771E-02  0.1126479E+00
        -11   -1    0    0    0    0  0.00000000000E+00  0.00000000000E+00  0.12500000000E+03  0.12500000000E+03  0.00000000000E+00 0.  1.
         11   -1    0    0    0    0 -0.00000000000E+00 -0.00000000000E+00 -0.12500000000E+03  0.12500000000E+03  0.00000000000E+00 0. -1.
         24    1    1    2    0    0 -0.72582435547E+02 -0.54919357891E+01  0.62124171921E+02  0.12500000000E+03  0.80419002446E+02 0.  1.
        -24    1    1    2    0    0  0.72582435547E+02  0.54919357891E+01 -0.62124171921E+02  0.12500000000E+03  0.80419002446E+02 0. -1.
</event>
<event>
 4    1  0.1699921E-001  0.1250000E+03  0.7546771E-02  0.1126479E+00
        -11   -1    0    0    0    0  0.00000000000E+00  0.00000000000E+00  0.12500000000E+03  0.12500000000E+03  0.00000000000E+00 0.  1.
         11   -1    0    0    0    0 -0.00000000000E+00 -0.00000000000E+00 -0.12500000000E+03  0.12500000000E+03  0.00000000000E+00 0. -1.
         24    1    1    2    0    0 -0.43278718292E+02 -0.87444891790E+01  0.84901534130E+02  0.12500000000E+03  0.80419002446E+02 0.  0.
        -24    1    1    2    0    0  0.43278718292E+02  0.87444891790E+01 -0.84901534130E+02  0.12500000000E+03  0.80419002446E+02 0.  0.
</event>
<event>
 4    1  0.1699921E-001  0.1250000E+03  0.7546771E-02  0.1126479E+00
        -11   -1    0    0    0    0  0.00000000000E+00  0.00000000000E+00  0.12500000000E+03  0.12500000000E+03  0.00000000000E+00 0.  1.
         11   -1    0    0    0    0 -0.00000000000E+00 -0.00000000000E+00 -0.12500000000E+03  0.12500000000E+03  0.00000000000E+00 0. -1.
         24    1    1    2    0    0  0.36772258920E+02  0.13555331514E+02  0.87303138587E+02  0.12500000000E+03  0.80419002446E+02 0.  1.
        -24    1    1    2    0    0 -0.36772258920E+02 -0.13555331514E+02 -0.87303138587E+02  0.12500000000E+03  0.80419002446E+02 0. -1.
</event>
<event>
 4    1  0.1699921E-001  0.1250000E+03  0.7546771E-02  0.1126479E+00
        -11   -1    0    0    0    0  0.00000000000E+00  0.00000000000E+00  0.12500000000E+03  0.12500000000E+03  0.00000000000E+00 0.  1.
         11   -1    0    0    0    0 -0.00000000000E+00 -0.00000000000E+00 -0.12500000000E+03  0.12500000000E+03  0.00000000000E+00 0. -1.
         24    1    1    2    0    0  0.62897682289E+01 -0.21635440712E+02  0.93006078116E+02  0.12500000000E+03  0.80419002446E+02 0.  1.
        -24    1    1    2    0    0 -0.62897682289E+01  0.21635440712E+02 -0.93006078116E+02  0.12500000000E+03  0.80419002446E+02 0. -1.
</event>
<event>
 4    1  0.1699921E-001  0.1250000E+03  0.7546771E-02  0.1126479E+00
        -11   -1    0    0    0    0  0.00000000000E+00  0.00000000000E+00  0.12500000000E+03  0.12500000000E+03  0.00000000000E+00 0.  1.
         11   -1    0    0    0    0 -0.00000000000E+00 -0.00000000000E+00 -0.12500000000E+03  0.12500000000E+03  0.00000000000E+00 0. -1.
         24    1    1    2    0    0 -0.80839305196E+02  0.48444377630E+02  0.16611232859E+02  0.12500000000E+03  0.80419002446E+02 0.  1.
        -24    1    1    2    0    0  0.80839305196E+02 -0.48444377630E+02 -0.16611232859E+02  0.12500000000E+03  0.80419002446E+02 0. -1.
</event>
<event>
 4    1  0.1699921E-001  0.1250000E+03  0.7546771E-02  0.1126479E+00
        -11   -1    0    0    0    0  0.00000000000E+00  0.00000000000E+00  0.12500000000E+03  0.12500000000E+03  0.00000000000E+00 0.  1.
         11   -1    0    0    0    0 -0.00000000000E+00 -0.00000000000E+00 -0.12500000000E+03  0.12500000000E+03  0.00000000000E+00 0. -1.
         24    1    1    2    0    0 -0.46757401312E+01 -0.57803833458E+02  0.76122521880E+02  0.12500000000E+03  0.80419002446E+02 0.  1.
        -24    1    1    2    0    0  0.46757401312E+01  0.57803833458E+02 -0.76122521880E+02  0.12500000000E+03  0.80419002446E+02 0. -1.
</event>
<event>
 4    1  0.1699921E-001  0.1250000E+03  0.7546771E-02  0.1126479E+00
        -11   -1    0    0    0    0  0.00000000000E+00  0.00000000000E+00  0.12500000000E+03  0.12500000000E+03  0.00000000000E+00 0.  1.
         11   -1    0    0    0    0 -0.00000000000E+00 -0.00000000000E+00 -0.12500000000E+03  0.12500000000E+03  0.00000000000E+00 0. -1.
         24    1    1    2    0    0  0.28944704209E+02  0.25901705512E+02  0.87459074975E+02  0.12500000000E+03  0.80419002446E+02 0.  1.
        -24    1    1    2    0    0 -0.28944704209E+02 -0.25901705512E+02 -0.87459074975E+02  0.12500000000E+03  0.80419002446E+02 0. -1.
</event>
<event>
 4    1  0.1699921E-001  0.1250000E+03  0.7546771E-02  0.1126479E+00
        -11   -1    0    0    0    0  0.00000000000E+00  0.00000000000E+00  0.12500000000E+03  0.12500000000E+03  0.00000000000E+00 0.  1.
         11   -1    0    0    0    0 -0.00000000000E+00 -0.00000000000E+00 -0.12500000000E+03  0.12500000000E+03  0.00000000000E+00 0. -1.
         24    1    1    2    0    0  0.43544185897E+02  0.59602725607E+02  0.60903226684E+02  0.12500000000E+03  0.80419002446E+02 0.  1.
        -24    1    1    2    0    0 -0.43544185897E+02 -0.59602725607E+02 -0.60903226684E+02  0.12500000000E+03  0.80419002446E+02 0. -1.
</event>
<event>
 4    1  0.1699921E-001  0.1250000E+03  0.7546771E-02  0.1126479E+00
        -11   -1    0    0    0    0  0.00000000000E+00  0.00000000000E+00  0.12500000000E+03  0.12500000000E+03  0.00000000000E+00 0.  1.
         11   -1    0    0    0    0 -0.00000000000E+00 -0.00000000000E+00 -0.12500000000E+03  0.12500000000E+03  0.00000000000E+00 0. -1.
         24    1    1    2    0    0 -0.63345574573E+02  0.51680877134E+02 -0.49741423042E+02  0.12500000000E+03  0.80419002446E+02 0.  0.
        -24    1    1    2    0    0  0.63345574573E+02 -0.51680877134E+02  0.49741423042E+02  0.12500000000E+03  0.80419002446E+02 0.  0.
</event>
<event>
 4    1  0.1699921E-001  0.1250000E+03  0.7546771E-02  0.1126479E+00
        -11   -1    0    0    0    0  0.00000000000E+00  0.00000000000E+00  0.12500000000E+03  0.12500000000E+03  0.00000000000E+00 0.  1.
         11   -1    0    0    0    0 -0.00000000000E+00 -0.00000000000E+00 -0.12500000000E+03  0.12500000000E+03  0.00000000000E+00 0. -1.
         24    1    1    2    0    0  0.30088326421E+02  0.28572816657E+02  0.86232655109E+02  0.12500000000E+03  0.80419002446E+02 0.  1.
        -24    1    1    2    0    0 -0.30088326421E+02 -0.28572816657E+02 -0.86232655109E+02  0.12500000000E+03  0.80419002446E+02 0. -1.
</event>
<event>
 4    1  0.1699921E-001  0.1250000E+03  0.7546771E-02  0.1126479E+00
        -11   -1    0    0    0    0  0.00000000000E+00  0.00000000000E+00  0.12500000000E+03  0.12500000000E+03  0.00000000000E+00 0.  1.
         11   -1    0    0    0    0 -0.00000000000E+00 -0.00000000000E+00 -0.12500000000E+03  0.12500000000E+03  0.00000000000E+00 0. -1.
         24    1    1    2    0    0  0.43443441636E+02  0.40846390607E+01  0.85169050413E+02  0.12500000000E+03  0.80419002446E+02 0.  1.
        -24    1    1    2    0    0 -0.43443441636E+02 -0.40846390607E+01 -0.85169050413E+02  0.12500000000E+03  0.80419002446E+02 0. -1.
</event>
<event>
 4    1  0.1699921E-001  0.1250000E+03  0.7546771E-02  0.1126479E+00
        -11   -1    0    0    0    0  0.00000000000E+00  0.00000000000E+00  0.12500000000E+03  0.12500000000E+03  0.00000000000E+00 0.  1.
         11   -1    0    0    0    0 -0.00000000000E+00 -0.00000000000E+00 -0.12500000000E+03  0.12500000000E+03  0.00000000000E+00 0. -1.
         24    1    1    2    0    0  0.48989027063E+01 -0.28911392941E+02  0.91092898494E+02  0.12500000000E+03  0.80419002446E+02 0.  1.
        -24    1    1    2    0    0 -0.48989027063E+01  0.28911392941E+02 -0.91092898494E+02  0.12500000000E+03  0.80419002446E+02 0. -1.
</event>
<event>
 4    1  0.1699921E-001  0.1250000E+03  0.7546771E-02  0.1126479E+00
        -11   -1    0    0    0    0  0.00000000000E+00  0.00000000000E+00  0.12500000000E+03  0.12500000000E+03  0.00000000000E+00 0.  1.
         11   -1    0    0    0    0 -0.00000000000E+00 -0.00000000000E+00 -0.12500000000E+03  0.12500000000E+03  0.00000000000E+00 0. -1.
         24    1    1    2    0    0  0.89664347394E+01 -0.42233379147E+02  0.85403330026E+02  0.12500000000E+03  0.80419002446E+02 0.  1.
        -24    1    1    2    0    0 -0.89664347394E+01  0.42233379147E+02 -0.85403330026E+02  0.12500000000E+03  0.80419002446E+02 0. -1.
</event>
<event>
 4    1  0.1699921E-001  0.1250000E+03  0.7546771E-02  0.1126479E+00
        -11   -1    0    0    0    0  0.00000000000E+00  0.00000000000E+00  0.12500000000E+03  0.12500000000E+03  0.00000000000E+00 0.  1.
         11   -1    0    0    0    0 -0.00000000000E+00 -0.00000000000E+00 -0.12500000000E+03  0.12500000000E+03  0.00000000000E+00 0. -1.
         24    1    1    2    0    0  0.44877865844E+02  0.61139100983E+02  0.58358988458E+02  0.12500000000E+03  0.80419002446E+02 0.  1.
        -24    1    1    2    0    0 -0.44877865844E+02 -0.61139100983E+02 -0.58358988458E+02  0.12500000000E+03  0.80419002446E+02 0. -1.
</event>
<event>
 4    1  0.1699921E-001  0.1250000E+03  0.7546771E-02  0.1126479E+00
        -11   -1    0    0    0    0  0.00000000000E+00  0.00000000000E+00  0.12500000000E+03  0.12500000000E+03  0.00000000000E+00 0.  1.
         11   -1    0    0    0    0 -0.00000000000E+00 -0.00000000000E+00 -0.12500000000E+03  0.12500000000E+03  0.00000000000E+00 0. -1.
         24    1    1    2    0    0  0.49093433679E+01 -0.23624788237E+02  0.92604275139E+02  0.12500000000E+03  0.80419002446E+02 0.  1.
        -24    1    1    2    0    0 -0.49093433679E+01  0.23624788237E+02 -0.92604275139E+02  0.12500000000E+03  0.80419002446E+02 0. -1.
</event>
<event>
 4    1  0.1699921E-001  0.1250000E+03  0.7546771E-02  0.1126479E+00
        -11   -1    0    0    0    0  0.00000000000E+00  0.00000000000E+00  0.12500000000E+03  0.12500000000E+03  0.00000000000E+00 0.  1.
         11   -1    0    0    0    0 -0.00000000000E+00 -0.00000000000E+00 -0.12500000000E+03  0.12500000000E+03  0.00000000000E+00 0. -1.
         24    1    1    2    0    0 -0.49024100120E+02  0.58779895481E+02  0.57439929843E+02  0.12500000000E+03  0.80419002446E+02 0.  1.
        -24    1    1    2    0    0  0.49024100120E+02 -0.58779895481E+02 -0.57439929843E+02  0.12500000000E+03  0.80419002446E+02 0. -1.
</event>
<event>
 4    1  0.1699921E-001  0.1250000E+03  0.7546771E-02  0.1126479E+00
        -11   -1    0    0    0    0  0.00000000000E+00  0.00000000000E+00  0.12500000000E+03  0.12500000000E+03  0.00000000000E+00 0.  1.
         11   -1    0    0    0    0 -0.00000000000E+00 -0.00000000000E+00 -0.12500000000E+03  0.12500000000E+03  0.00000000000E+00 0. -1.
         24    1    1    2    0    0  0.36708649069E+01 -0.79229998866E+02  0.53543590431E+02  0.12500000000E+03  0.80419002446E+02 0.  0.
        -24    1    1    2    0    0 -0.36708649069E+01  0.79229998866E+02 -0.53543590431E+02  0.12500000000E+03  0.80419002446E+02 0. -1.
</event>
<event>
 4    1  0.1699921E-001  0.1250000E+03  0.7546771E-02  0.1126479E+00
        -11   -1    0    0    0    0  0.00000000000E+00  0.00000000000E+00  0.12500000000E+03  0.12500000000E+03  0.00000000000E+00 0.  1.
         11   -1    0    0    0    0 -0.00000000000E+00 -0.00000000000E+00 -0.12500000000E+03  0.12500000000E+03  0.00000000000E+00 0. -1.
         24    1    1    2    0    0  0.17388617049E+02  0.12160616768E+02  0.93314197433E+02  0.12500000000E+03  0.80419002446E+02 0.  0.
        -24    1    1    2    0    0 -0.17388617049E+02 -0.12160616768E+02 -0.93314197433E+02  0.12500000000E+03  0.80419002446E+02 0.  0.
</event>
<event>
 4    1  0.1699921E-001  0.1250000E+03  0.7546771E-02  0.1126479E+00
        -11   -1    0    0    0    0  0.00000000000E+00  0.00000000000E+00  0.12500000000E+03  0.12500000000E+03  0.00000000000E+00 0.  1.
         11   -1    0    0    0    0 -0.00000000000E+00 -0.00000000000E+00 -0.12500000000E+03  0.12500000000E+03  0.00000000000E+00 0. -1.
         24    1    1    2    0    0  0.84442350791E+02  0.34653367524E+02  0.28747479156E+02  0.12500000000E+03  0.80419002446E+02 0.  0.
        -24    1    1    2    0    0 -0.84442350791E+02 -0.34653367524E+02 -0.28747479156E+02  0.12500000000E+03  0.80419002446E+02 0. -1.
</event>
<event>
 4    1  0.1699921E-001  0.1250000E+03  0.7546771E-02  0.1126479E+00
        -11   -1    0    0    0    0  0.00000000000E+00  0.00000000000E+00  0.12500000000E+03  0.12500000000E+03  0.00000000000E+00 0.  1.
         11   -1    0    0    0    0 -0.00000000000E+00 -0.00000000000E+00 -0.12500000000E+03  0.12500000000E+03  0.00000000000E+00 0. -1.
         24    1    1    2    0    0 -0.17510173642E+02 -0.33549260310E+02  0.87895534570E+02  0.12500000000E+03  0.80419002446E+02 0.  1.
        -24    1    1    2    0    0  0.17510173642E+02  0.33549260310E+02 -0.87895534570E+02  0.12500000000E+03  0.80419002446E+02 0. -1.
</event>
<event>
 4    1  0.1699921E-001  0.1250000E+03  0.7546771E-02  0.1126479E+00
        -11   -1    0    0    0    0  0.00000000000E+00  0.00000000000E+00  0.12500000000E+03  0.12500000000E+03  0.00000000000E+00 0.  1.
         11   -1    0    0    0    0 -0.00000000000E+00 -0.00000000000E+00 -0.12500000000E+03  0.12500000000E+03  0.00000000000E+00 0. -1.
         24    1    1    2    0    0  0.83801674775E+02  0.38698277462E+01  0.46044410993E+02  0.12500000000E+03  0.80419002446E+02 0.  1.
        -24    1    1    2    0    0 -0.83801674775E+02 -0.38698277462E+01 -0.46044410993E+02  0.12500000000E+03  0.80419002446E+02 0. -1.
</event>
<event>
 4    1  0.1699921E-001  0.1250000E+03  0.7546771E-02  0.1126479E+00
        -11   -1    0    0    0    0  0.00000000000E+00  0.00000000000E+00  0.12500000000E+03  0.12500000000E+03  0.00000000000E+00 0.  1.
         11   -1    0    0    0    0 -0.00000000000E+00 -0.00000000000E+00 -0.12500000000E+03  0.12500000000E+03  0.00000000000E+00 0. -1.
         24    1    1    2    0    0  0.44647476542E+02 -0.84626726951E+02 -0.16443751551E+01  0.12500000000E+03  0.80419002446E+02 0. -1.
        -24    1    1    2    0    0 -0.44647476542E+02  0.84626726951E+02  0.16443751551E+01  0.12500000000E+03  0.80419002446E+02 0.  1.
</event>
<event>
 4    1  0.1699921E-001  0.1250000E+03  0.7546771E-02  0.1126479E+00
        -11   -1    0    0    0    0  0.00000000000E+00  0.00000000000E+00  0.12500000000E+03  0.12500000000E+03  0.00000000000E+00 0.  1.
         11   -1    0    0    0    0 -0.00000000000E+00 -0.00000000000E+00 -0.12500000000E+03  0.12500000000E+03  0.00000000000E+00 0. -1.
         24    1    1    2    0    0 -0.35279968363E+02  0.17490997085E+02  0.87219108565E+02  0.12500000000E+03  0.80419002446E+02 0.  1.
        -24    1    1    2    0    0  0.35279968363E+02 -0.17490997085E+02 -0.87219108565E+02  0.12500000000E+03  0.80419002446E+02 0. -1.
</event>
<event>
 4    1  0.1699921E-001  0.1250000E+03  0.7546771E-02  0.1126479E+00
        -11   -1    0    0    0    0  0.00000000000E+00  0.00000000000E+00  0.12500000000E+03  0.12500000000E+03  0.00000000000E+00 0.  1.
         11   -1    0    0    0    0 -0.00000000000E+00 -0.00000000000E+00 -0.12500000000E+03  0.12500000000E+03  0.00000000000E+00 0. -1.
         24    1    1    2    0    0 -0.56956597336E+02 -0.18789946693E+02  0.74569886474E+02  0.12500000000E+03  0.80419002446E+02 0.  1.
        -24    1    1    2    0    0  0.56956597336E+02  0.18789946693E+02 -0.74569886474E+02  0.12500000000E+03  0.80419002446E+02 0. -1.
</event>
<event>
 4    1  0.1699921E-001  0.1250000E+03  0.7546771E-02  0.1126479E+00
        -11   -1    0    0    0    0  0.00000000000E+00  0.00000000000E+00  0.12500000000E+03  0.12500000000E+03  0.00000000000E+00 0.  1.
         11   -1    0    0    0    0 -0.00000000000E+00 -0.00000000000E+00 -0.12500000000E+03  0.12500000000E+03  0.00000000000E+00 0. -1.
         24    1    1    2    0    0 -0.23905913023E+02 -0.45080871403E+02  0.80956818130E+02  0.12500000000E+03  0.80419002446E+02 0.  1.
        -24    1    1    2    0    0  0.23905913023E+02  0.45080871403E+02 -0.80956818130E+02  0.12500000000E+03  0.80419002446E+02 0. -1.
</event>
<event>
 4    1  0.1699921E-001  0.1250000E+03  0.7546771E-02  0.1126479E+00
        -11   -1    0    0    0    0  0.00000000000E+00  0.00000000000E+00  0.12500000000E+03  0.12500000000E+03  0.00000000000E+00 0.  1.
         11   -1    0    0    0    0 -0.00000000000E+00 -0.00000000000E+00 -0.12500000000E+03  0.12500000000E+03  0.00000000000E+00 0. -1.
         24    1    1    2    0    0 -0.51782208460E+02 -0.20257607879E+02  0.77884634272E+02  0.12500000000E+03  0.80419002446E+02 0.  1.
        -24    1    1    2    0    0  0.51782208460E+02  0.20257607879E+02 -0.77884634272E+02  0.12500000000E+03  0.80419002446E+02 0. -1.
</event>
<event>
 4    1  0.1699921E-001  0.1250000E+03  0.7546771E-02  0.1126479E+00
        -11   -1    0    0    0    0  0.00000000000E+00  0.00000000000E+00  0.12500000000E+03  0.12500000000E+03  0.00000000000E+00 0.  1.
         11   -1    0    0    0    0 -0.00000000000E+00 -0.00000000000E+00 -0.12500000000E+03  0.12500000000E+03  0.00000000000E+00 0. -1.
         24    1    1    2    0    0 -0.40927117616E+02 -0.61408754379E+02  0.60923886735E+02  0.12500000000E+03  0.80419002446E+02 0.  1.
        -24    1    1    2    0    0  0.40927117616E+02  0.61408754379E+02 -0.60923886735E+02  0.12500000000E+03  0.80419002446E+02 0. -1.
</event>
<event>
 4    1  0.1699921E-001  0.1250000E+03  0.7546771E-02  0.1126479E+00
        -11   -1    0    0    0    0  0.00000000000E+00  0.00000000000E+00  0.12500000000E+03  0.12500000000E+03  0.00000000000E+00 0.  1.
         11   -1    0    0    0    0 -0.00000000000E+00 -0.00000000000E+00 -0.12500000000E+03  0.12500000000E+03  0.00000000000E+00 0. -1.
         24    1    1    2    0    0  0.95351685044E+02 -0.50018934995E+01  0.63891522348E+01  0.12500000000E+03  0.80419002446E+02 0. -1.
        -24    1    1    2    0    0 -0.95351685044E+02  0.50018934995E+01 -0.63891522348E+01  0.12500000000E+03  0.80419002446E+02 0.  1.
</event>
<event>
 4    1  0.1699921E-001  0.1250000E+03  0.7546771E-02  0.1126479E+00
        -11   -1    0    0    0    0  0.00000000000E+00  0.00000000000E+00  0.12500000000E+03  0.12500000000E+03  0.00000000000E+00 0.  1.
         11   -1    0    0    0    0 -0.00000000000E+00 -0.00000000000E+00 -0.12500000000E+03  0.12500000000E+03  0.00000000000E+00 0. -1.
         24    1    1    2    0    0  0.34833295814E+02  0.11573340827E+02  0.88376938906E+02  0.12500000000E+03  0.80419002446E+02 0.  1.
        -24    1    1    2    0    0 -0.34833295814E+02 -0.11573340827E+02 -0.88376938906E+02  0.12500000000E+03  0.80419002446E+02 0. -1.
</event>
<event>
 4    1  0.1699921E-001  0.1250000E+03  0.7546771E-02  0.1126479E+00
        -11   -1    0    0    0    0  0.00000000000E+00  0.00000000000E+00  0.12500000000E+03  0.12500000000E+03  0.00000000000E+00 0.  1.
         11   -1    0    0    0    0 -0.00000000000E+00 -0.00000000000E+00 -0.12500000000E+03  0.12500000000E+03  0.00000000000E+00 0. -1.
         24    1    1    2    0    0  0.40211585666E+02  0.10869218994E+02  0.86154933128E+02  0.12500000000E+03  0.80419002446E+02 0.  1.
        -24    1    1    2    0    0 -0.40211585666E+02 -0.10869218994E+02 -0.86154933128E+02  0.12500000000E+03  0.80419002446E+02 0. -1.
</event>
<event>
 4    1  0.1699921E-001  0.1250000E+03  0.7546771E-02  0.1126479E+00
        -11   -1    0    0    0    0  0.00000000000E+00  0.00000000000E+00  0.12500000000E+03  0.12500000000E+03  0.00000000000E+00 0.  1.
         11   -1    0    0    0    0 -0.00000000000E+00 -0.00000000000E+00 -0.12500000000E+03  0.12500000000E+03  0.00000000000E+00 0. -1.
         24    1    1    2    0    0 -0.54466285164E+02  0.75479668639E+01  0.78321363766E+02  0.12500000000E+03  0.80419002446E+02 0.  0.
        -24    1    1    2    0    0  0.54466285164E+02 -0.75479668639E+01 -0.78321363766E+02  0.12500000000E+03  0.80419002446E+02 0.  0.
</event>
<event>
 4    1  0.1699921E-001  0.1250000E+03  0.7546771E-02  0.1126479E+00
        -11   -1    0    0    0    0  0.00000000000E+00  0.00000000000E+00  0.12500000000E+03  0.12500000000E+03  0.00000000000E+00 0.  1.
         11   -1    0    0    0    0 -0.00000000000E+00 -0.00000000000E+00 -0.12500000000E+03  0.12500000000E+03  0.00000000000E+00 0. -1.
         24    1    1    2    0    0  0.28508464206E+01 -0.82428070099E+02  0.48531123829E+02  0.12500000000E+03  0.80419002446E+02 0.  1.
        -24    1    1    2    0    0 -0.28508464206E+01  0.82428070099E+02 -0.48531123829E+02  0.12500000000E+03  0.80419002446E+02 0. -1.
</event>
<event>
 4    1  0.1699921E-001  0.1250000E+03  0.7546771E-02  0.1126479E+00
        -11   -1    0    0    0    0  0.00000000000E+00  0.00000000000E+00  0.12500000000E+03  0.12500000000E+03  0.00000000000E+00 0.  1.
         11   -1    0    0    0    0 -0.00000000000E+00 -0.00000000000E+00 -0.12500000000E+03  0.12500000000E+03  0.00000000000E+00 0. -1.
         24    1    1    2    0    0  0.99324844064E+01 -0.44530266900E+02  0.84120063772E+02  0.12500000000E+03  0.80419002446E+02 0.  1.
        -24    1    1    2    0    0 -0.99324844064E+01  0.44530266900E+02 -0.84120063772E+02  0.12500000000E+03  0.80419002446E+02 0. -1.
</event>
<event>
 4    1  0.1699921E-001  0.1250000E+03  0.7546771E-02  0.1126479E+00
        -11   -1    0    0    0    0  0.00000000000E+00  0.00000000000E+00  0.12500000000E+03  0.12500000000E+03  0.00000000000E+00 0.  1.
         11   -1    0    0    0    0 -0.00000000000E+00 -0.00000000000E+00 -0.12500000000E+03  0.12500000000E+03  0.00000000000E+00 0. -1.
         24    1    1    2    0    0  0.41079012274E+02  0.65854098862E+02  0.55977999780E+02  0.12500000000E+03  0.80419002446E+02 0.  1.
        -24    1    1    2    0    0 -0.41079012274E+02 -0.65854098862E+02 -0.55977999780E+02  0.12500000000E+03  0.80419002446E+02 0. -1.
</event>
<event>
 4    1  0.1699921E-001  0.1250000E+03  0.7546771E-02  0.1126479E+00
        -11   -1    0    0    0    0  0.00000000000E+00  0.00000000000E+00  0.12500000000E+03  0.12500000000E+03  0.00000000000E+00 0.  1.
         11   -1    0    0    0    0 -0.00000000000E+00 -0.00000000000E+00 -0.12500000000E+03  0.12500000000E+03  0.00000000000E+00 0. -1.
         24    1    1    2    0    0 -0.91210834228E+02  0.27460677942E+02 -0.91803557637E+01  0.12500000000E+03  0.80419002446E+02 0.  0.
        -24    1    1    2    0    0  0.91210834228E+02 -0.27460677942E+02  0.91803557637E+01  0.12500000000E+03  0.80419002446E+02 0.  0.
</event>
<event>
 4    1  0.1699921E-001  0.1250000E+03  0.7546771E-02  0.1126479E+00
        -11   -1    0    0    0    0  0.00000000000E+00  0.00000000000E+00  0.12500000000E+03  0.12500000000E+03  0.00000000000E+00 0.  1.
         11   -1    0    0    0    0 -0.00000000000E+00 -0.00000000000E+00 -0.12500000000E+03  0.12500000000E+03  0.00000000000E+00 0. -1.
         24    1    1    2    0    0  0.74139164311E+01 -0.27346846636E+02  0.91405513334E+02  0.12500000000E+03  0.80419002446E+02 0.  0.
        -24    1    1    2    0    0 -0.74139164311E+01  0.27346846636E+02 -0.91405513334E+02  0.12500000000E+03  0.80419002446E+02 0.  0.
</event>
<event>
 4    1  0.1699921E-001  0.1250000E+03  0.7546771E-02  0.1126479E+00
        -11   -1    0    0    0    0  0.00000000000E+00  0.00000000000E+00  0.12500000000E+03  0.12500000000E+03  0.00000000000E+00 0.  1.
         11   -1    0    0    0    0 -0.00000000000E+00 -0.00000000000E+00 -0.12500000000E+03  0.12500000000E+03  0.00000000000E+00 0. -1.
         24    1    1    2    0    0 -0.63906632207E+02 -0.57373293584E+02  0.42214115991E+02  0.12500000000E+03  0.80419002446E+02 0.  1.
        -24    1    1    2    0    0  0.63906632207E+02  0.57373293584E+02 -0.42214115991E+02  0.12500000000E+03  0.80419002446E+02 0. -1.
</event>
<event>
 4    1  0.1699921E-001  0.1250000E+03  0.7546771E-02  0.1126479E+00
        -11   -1    0    0    0    0  0.00000000000E+00  0.00000000000E+00  0.12500000000E+03  0.12500000000E+03  0.00000000000E+00 0.  1.
         11   -1    0    0    0    0 -0.00000000000E+00 -0.00000000000E+00 -0.12500000000E+03  0.12500000000E+03  0.00000000000E+00 0. -1.
         24    1    1    2    0    0 -0.57172581784E+02 -0.68912510056E+02  0.33766046489E+02  0.12500000000E+03  0.80419002446E+02 0.  1.
        -24    1    1    2    0    0  0.57172581784E+02  0.68912510056E+02 -0.33766046489E+02  0.12500000000E+03  0.80419002446E+02 0. -1.
</event>
<event>
 4    1  0.1699921E-001  0.1250000E+03  0.7546771E-02  0.1126479E+00
        -11   -1    0    0    0    0  0.00000000000E+00  0.00000000000E+00  0.12500000000E+03  0.12500000000E+03  0.00000000000E+00 0.  1.
         11   -1    0    0    0    0 -0.00000000000E+00 -0.00000000000E+00 -0.12500000000E+03  0.12500000000E+03  0.00000000000E+00 0. -1.
         24    1    1    2    0    0  0.32296824787E+02 -0.14075588815E+02  0.88975147956E+02  0.12500000000E+03  0.80419002446E+02 0.  1.
        -24    1    1    2    0    0 -0.32296824787E+02  0.14075588815E+02 -0.88975147956E+02  0.12500000000E+03  0.80419002446E+02 0. -1.
</event>
<event>
 4    1  0.1699921E-001  0.1250000E+03  0.7546771E-02  0.1126479E+00
        -11   -1    0    0    0    0  0.00000000000E+00  0.00000000000E+00  0.12500000000E+03  0.12500000000E+03  0.00000000000E+00 0.  1.
         11   -1    0    0    0    0 -0.00000000000E+00 -0.00000000000E+00 -0.12500000000E+03  0.12500000000E+03  0.00000000000E+00 0. -1.
         24    1    1    2    0    0  0.72839393200E+02 -0.58993961261E+02  0.19285211395E+02  0.12500000000E+03  0.80419002446E+02 0.  1.
        -24    1    1    2    0    0 -0.72839393200E+02  0.58993961261E+02 -0.19285211395E+02  0.12500000000E+03  0.80419002446E+02 0.  0.
</event>
<event>
 4    1  0.1699921E-001  0.1250000E+03  0.7546771E-02  0.1126479E+00
        -11   -1    0    0    0    0  0.00000000000E+00  0.00000000000E+00  0.12500000000E+03  0.12500000000E+03  0.00000000000E+00 0.  1.
         11   -1    0    0    0    0 -0.00000000000E+00 -0.00000000000E+00 -0.12500000000E+03  0.12500000000E+03  0.00000000000E+00 0. -1.
         24    1    1    2    0    0  0.55709905579E+02 -0.73654229482E+02  0.25084755239E+02  0.12500000000E+03  0.80419002446E+02 0.  1.
        -24    1    1    2    0    0 -0.55709905579E+02  0.73654229482E+02 -0.25084755239E+02  0.12500000000E+03  0.80419002446E+02 0. -1.
</event>
<event>
 4    1  0.1699921E-001  0.1250000E+03  0.7546771E-02  0.1126479E+00
        -11   -1    0    0    0    0  0.00000000000E+00  0.00000000000E+00  0.12500000000E+03  0.12500000000E+03  0.00000000000E+00 0.  1.
         11   -1    0    0    0    0 -0.00000000000E+00 -0.00000000000E+00 -0.12500000000E+03  0.12500000000E+03  0.00000000000E+00 0. -1.
         24    1    1    2    0    0 -0.53901237843E+02  0.44772086815E+02  0.65175922294E+02  0.12500000000E+03  0.80419002446E+02 0.  1.
        -24    1    1    2    0    0  0.53901237843E+02 -0.44772086815E+02 -0.65175922294E+02  0.12500000000E+03  0.80419002446E+02 0. -1.
</event>
<event>
 4    1  0.1699921E-001  0.1250000E+03  0.7546771E-02  0.1126479E+00
        -11   -1    0    0    0    0  0.00000000000E+00  0.00000000000E+00  0.12500000000E+03  0.12500000000E+03  0.00000000000E+00 0.  1.
         11   -1    0    0    0    0 -0.00000000000E+00 -0.00000000000E+00 -0.12500000000E+03  0.12500000000E+03  0.00000000000E+00 0. -1.
         24    1    1    2    0    0  0.48376786348E+02 -0.64320478027E+02  0.51772064810E+02  0.12500000000E+03  0.80419002446E+02 0.  1.
        -24    1    1    2    0    0 -0.48376786348E+02  0.64320478027E+02 -0.51772064810E+02  0.12500000000E+03  0.80419002446E+02 0. -1.
</event>
<event>
 4    1  0.1699921E-001  0.1250000E+03  0.7546771E-02  0.1126479E+00
        -11   -1    0    0    0    0  0.00000000000E+00  0.00000000000E+00  0.12500000000E+03  0.12500000000E+03  0.00000000000E+00 0.  1.
         11   -1    0    0    0    0 -0.00000000000E+00 -0.00000000000E+00 -0.12500000000E+03  0.12500000000E+03  0.00000000000E+00 0. -1.
         24    1    1    2    0    0 -0.83285716855E+01  0.74271814384E+02  0.59767186043E+02  0.12500000000E+03  0.80419002446E+02 0.  1.
        -24    1    1    2    0    0  0.83285716855E+01 -0.74271814384E+02 -0.59767186043E+02  0.12500000000E+03  0.80419002446E+02 0. -1.
</event>
<event>
 4    1  0.1699921E-001  0.1250000E+03  0.7546771E-02  0.1126479E+00
        -11   -1    0    0    0    0  0.00000000000E+00  0.00000000000E+00  0.12500000000E+03  0.12500000000E+03  0.00000000000E+00 0.  1.
         11   -1    0    0    0    0 -0.00000000000E+00 -0.00000000000E+00 -0.12500000000E+03  0.12500000000E+03  0.00000000000E+00 0. -1.
         24    1    1    2    0    0 -0.87945291682E+01 -0.56195108885E+02  0.76958105744E+02  0.12500000000E+03  0.80419002446E+02 0.  1.
        -24    1    1    2    0    0  0.87945291682E+01  0.56195108885E+02 -0.76958105744E+02  0.12500000000E+03  0.80419002446E+02 0. -1.
</event>
<event>
 4    1  0.1699921E-001  0.1250000E+03  0.7546771E-02  0.1126479E+00
        -11   -1    0    0    0    0  0.00000000000E+00  0.00000000000E+00  0.12500000000E+03  0.12500000000E+03  0.00000000000E+00 0.  1.
         11   -1    0    0    0    0 -0.00000000000E+00 -0.00000000000E+00 -0.12500000000E+03  0.12500000000E+03  0.00000000000E+00 0. -1.
         24    1    1    2    0    0  0.82083615437E+02 -0.37536030329E+02  0.31797964549E+02  0.12500000000E+03  0.80419002446E+02 0.  1.
        -24    1    1    2    0    0 -0.82083615437E+02  0.37536030329E+02 -0.31797964549E+02  0.12500000000E+03  0.80419002446E+02 0. -1.
</event>
<event>
 4    1  0.1699921E-001  0.1250000E+03  0.7546771E-02  0.1126479E+00
        -11   -1    0    0    0    0  0.00000000000E+00  0.00000000000E+00  0.12500000000E+03  0.12500000000E+03  0.00000000000E+00 0.  1.
         11   -1    0    0    0    0 -0.00000000000E+00 -0.00000000000E+00 -0.12500000000E+03  0.12500000000E+03  0.00000000000E+00 0. -1.
         24    1    1    2    0    0 -0.14161923536E+02  0.51202134891E+02  0.79596264674E+02  0.12500000000E+03  0.80419002446E+02 0.  1.
        -24    1    1    2    0    0  0.14161923536E+02 -0.51202134891E+02 -0.79596264674E+02  0.12500000000E+03  0.80419002446E+02 0. -1.
</event>
<event>
 4    1  0.1699921E-001  0.1250000E+03  0.7546771E-02  0.1126479E+00
        -11   -1    0    0    0    0  0.00000000000E+00  0.00000000000E+00  0.12500000000E+03  0.12500000000E+03  0.00000000000E+00 0.  1.
         11   -1    0    0    0    0 -0.00000000000E+00 -0.00000000000E+00 -0.12500000000E+03  0.12500000000E+03  0.00000000000E+00 0. -1.
         24    1    1    2    0    0 -0.49604438192E+02  0.70457977225E+02  0.41627601452E+02  0.12500000000E+03  0.80419002446E+02 0.  1.
        -24    1    1    2    0    0  0.49604438192E+02 -0.70457977225E+02 -0.41627601452E+02  0.12500000000E+03  0.80419002446E+02 0. -1.
</event>
<event>
 4    1  0.1699921E-001  0.1250000E+03  0.7546771E-02  0.1126479E+00
        -11   -1    0    0    0    0  0.00000000000E+00  0.00000000000E+00  0.12500000000E+03  0.12500000000E+03  0.00000000000E+00 0.  1.
         11   -1    0    0    0    0 -0.00000000000E+00 -0.00000000000E+00 -0.12500000000E+03  0.12500000000E+03  0.00000000000E+00 0. -1.
         24    1    1    2    0    0 -0.84356471796E+02  0.42763345813E+02 -0.14596779321E+02  0.12500000000E+03  0.80419002446E+02 0. -1.
        -24    1    1    2    0    0  0.84356471796E+02 -0.42763345813E+02  0.14596779321E+02  0.12500000000E+03  0.80419002446E+02 0.  1.
</event>
<event>
 4    1  0.1699921E-001  0.1250000E+03  0.7546771E-02  0.1126479E+00
        -11   -1    0    0    0    0  0.00000000000E+00  0.00000000000E+00  0.12500000000E+03  0.12500000000E+03  0.00000000000E+00 0.  1.
         11   -1    0    0    0    0 -0.00000000000E+00 -0.00000000000E+00 -0.12500000000E+03  0.12500000000E+03  0.00000000000E+00 0. -1.
         24    1    1    2    0    0  0.88770510828E+02  0.33616660796E+02  0.12144981262E+02  0.12500000000E+03  0.80419002446E+02 0.  1.
        -24    1    1    2    0    0 -0.88770510828E+02 -0.33616660796E+02 -0.12144981262E+02  0.12500000000E+03  0.80419002446E+02 0. -1.
</event>
<event>
 4    1  0.1699921E-001  0.1250000E+03  0.7546771E-02  0.1126479E+00
        -11   -1    0    0    0    0  0.00000000000E+00  0.00000000000E+00  0.12500000000E+03  0.12500000000E+03  0.00000000000E+00 0.  1.
         11   -1    0    0    0    0 -0.00000000000E+00 -0.00000000000E+00 -0.12500000000E+03  0.12500000000E+03  0.00000000000E+00 0. -1.
         24    1    1    2    0    0  0.62812298284E+02 -0.69687617873E+02  0.18868893584E+02  0.12500000000E+03  0.80419002446E+02 0.  1.
        -24    1    1    2    0    0 -0.62812298284E+02  0.69687617873E+02 -0.18868893584E+02  0.12500000000E+03  0.80419002446E+02 0. -1.
</event>
<event>
 4    1  0.1699921E-001  0.1250000E+03  0.7546771E-02  0.1126479E+00
        -11   -1    0    0    0    0  0.00000000000E+00  0.00000000000E+00  0.12500000000E+03  0.12500000000E+03  0.00000000000E+00 0.  1.
         11   -1    0    0    0    0 -0.00000000000E+00 -0.00000000000E+00 -0.12500000000E+03  0.12500000000E+03  0.00000000000E+00 0. -1.
         24    1    1    2    0    0 -0.82217968960E+02 -0.48647563204E+02  0.56039468241E+01  0.12500000000E+03  0.80419002446E+02 0.  1.
        -24    1    1    2    0    0  0.82217968960E+02  0.48647563204E+02 -0.56039468241E+01  0.12500000000E+03  0.80419002446E+02 0. -1.
</event>
<event>
 4    1  0.1699921E-001  0.1250000E+03  0.7546771E-02  0.1126479E+00
        -11   -1    0    0    0    0  0.00000000000E+00  0.00000000000E+00  0.12500000000E+03  0.12500000000E+03  0.00000000000E+00 0.  1.
         11   -1    0    0    0    0 -0.00000000000E+00 -0.00000000000E+00 -0.12500000000E+03  0.12500000000E+03  0.00000000000E+00 0. -1.
         24    1    1    2    0    0 -0.45788482473E+02 -0.27878030485E+02  0.79271775146E+02  0.12500000000E+03  0.80419002446E+02 0.  1.
        -24    1    1    2    0    0  0.45788482473E+02  0.27878030485E+02 -0.79271775146E+02  0.12500000000E+03  0.80419002446E+02 0. -1.
</event>
<event>
 4    1  0.1699921E-001  0.1250000E+03  0.7546771E-02  0.1126479E+00
        -11   -1    0    0    0    0  0.00000000000E+00  0.00000000000E+00  0.12500000000E+03  0.12500000000E+03  0.00000000000E+00 0.  1.
         11   -1    0    0    0    0 -0.00000000000E+00 -0.00000000000E+00 -0.12500000000E+03  0.12500000000E+03  0.00000000000E+00 0. -1.
         24    1    1    2    0    0  0.20558084987E+01 -0.49182654268E+02  0.82064756237E+02  0.12500000000E+03  0.80419002446E+02 0.  1.
        -24    1    1    2    0    0 -0.20558084987E+01  0.49182654268E+02 -0.82064756237E+02  0.12500000000E+03  0.80419002446E+02 0. -1.
</event>
<event>
 4    1  0.1699921E-001  0.1250000E+03  0.7546771E-02  0.1126479E+00
        -11   -1    0    0    0    0  0.00000000000E+00  0.00000000000E+00  0.12500000000E+03  0.12500000000E+03  0.00000000000E+00 0.  1.
         11   -1    0    0    0    0 -0.00000000000E+00 -0.00000000000E+00 -0.12500000000E+03  0.12500000000E+03  0.00000000000E+00 0. -1.
         24    1    1    2    0    0  0.40008446035E+02  0.17265549402E+02  0.85199818634E+02  0.12500000000E+03  0.80419002446E+02 0.  1.
        -24    1    1    2    0    0 -0.40008446035E+02 -0.17265549402E+02 -0.85199818634E+02  0.12500000000E+03  0.80419002446E+02 0. -1.
</event>
<event>
 4    1  0.1699921E-001  0.1250000E+03  0.7546771E-02  0.1126479E+00
        -11   -1    0    0    0    0  0.00000000000E+00  0.00000000000E+00  0.12500000000E+03  0.12500000000E+03  0.00000000000E+00 0.  1.
         11   -1    0    0    0    0 -0.00000000000E+00 -0.00000000000E+00 -0.12500000000E+03  0.12500000000E+03  0.00000000000E+00 0. -1.
         24    1    1    2    0    0 -0.11069009194E+02 -0.39831587035E+02  0.86305884825E+02  0.12500000000E+03  0.80419002446E+02 0.  1.
        -24    1    1    2    0    0  0.11069009194E+02  0.39831587035E+02 -0.86305884825E+02  0.12500000000E+03  0.80419002446E+02 0. -1.
</event>
<event>
 4    1  0.1699921E-001  0.1250000E+03  0.7546771E-02  0.1126479E+00
        -11   -1    0    0    0    0  0.00000000000E+00  0.00000000000E+00  0.12500000000E+03  0.12500000000E+03  0.00000000000E+00 0.  1.
         11   -1    0    0    0    0 -0.00000000000E+00 -0.00000000000E+00 -0.12500000000E+03  0.12500000000E+03  0.00000000000E+00 0. -1.
         24    1    1    2    0    0  0.37443350900E+02  0.52352063563E+02  0.70816953900E+02  0.12500000000E+03  0.80419002446E+02 0.  1.
        -24    1    1    2    0    0 -0.37443350900E+02 -0.52352063563E+02 -0.70816953900E+02  0.12500000000E+03  0.80419002446E+02 0.  0.
</event>
<event>
 4    1  0.1699921E-001  0.1250000E+03  0.7546771E-02  0.1126479E+00
        -11   -1    0    0    0    0  0.00000000000E+00  0.00000000000E+00  0.12500000000E+03  0.12500000000E+03  0.00000000000E+00 0.  1.
         11   -1    0    0    0    0 -0.00000000000E+00 -0.00000000000E+00 -0.12500000000E+03  0.12500000000E+03  0.00000000000E+00 0. -1.
         24    1    1    2    0    0  0.17198984566E+02 -0.81320564808E+02  0.47423039916E+02  0.12500000000E+03  0.80419002446E+02 0.  1.
        -24    1    1    2    0    0 -0.17198984566E+02  0.81320564808E+02 -0.47423039916E+02  0.12500000000E+03  0.80419002446E+02 0. -1.
</event>
<event>
 4    1  0.1699921E-001  0.1250000E+03  0.7546771E-02  0.1126479E+00
        -11   -1    0    0    0    0  0.00000000000E+00  0.00000000000E+00  0.12500000000E+03  0.12500000000E+03  0.00000000000E+00 0.  1.
         11   -1    0    0    0    0 -0.00000000000E+00 -0.00000000000E+00 -0.12500000000E+03  0.12500000000E+03  0.00000000000E+00 0. -1.
         24    1    1    2    0    0  0.70119906035E+02 -0.41281444217E+02  0.50366905669E+02  0.12500000000E+03  0.80419002446E+02 0.  1.
        -24    1    1    2    0    0 -0.70119906035E+02  0.41281444217E+02 -0.50366905669E+02  0.12500000000E+03  0.80419002446E+02 0. -1.
</event>
<event>
 4    1  0.1699921E-001  0.1250000E+03  0.7546771E-02  0.1126479E+00
        -11   -1    0    0    0    0  0.00000000000E+00  0.00000000000E+00  0.12500000000E+03  0.12500000000E+03  0.00000000000E+00 0.  1.
         11   -1    0    0    0    0 -0.00000000000E+00 -0.00000000000E+00 -0.12500000000E+03  0.12500000000E+03  0.00000000000E+00 0. -1.
         24    1    1    2    0    0 -0.94494673122E+01 -0.21622015660E+02  0.92741468890E+02  0.12500000000E+03  0.80419002446E+02 0.  1.
        -24    1    1    2    0    0  0.94494673122E+01  0.21622015660E+02 -0.92741468890E+02  0.12500000000E+03  0.80419002446E+02 0. -1.
</event>
<event>
 4    1  0.1699921E-001  0.1250000E+03  0.7546771E-02  0.1126479E+00
        -11   -1    0    0    0    0  0.00000000000E+00  0.00000000000E+00  0.12500000000E+03  0.12500000000E+03  0.00000000000E+00 0.  1.
         11   -1    0    0    0    0 -0.00000000000E+00 -0.00000000000E+00 -0.12500000000E+03  0.12500000000E+03  0.00000000000E+00 0. -1.
         24    1    1    2    0    0  0.66025983621E+02  0.56912920677E+02 -0.39487630881E+02  0.12500000000E+03  0.80419002446E+02 0.  1.
        -24    1    1    2    0    0 -0.66025983621E+02 -0.56912920677E+02  0.39487630881E+02  0.12500000000E+03  0.80419002446E+02 0. -1.
</event>
<event>
 4    1  0.1699921E-001  0.1250000E+03  0.7546771E-02  0.1126479E+00
        -11   -1    0    0    0    0  0.00000000000E+00  0.00000000000E+00  0.12500000000E+03  0.12500000000E+03  0.00000000000E+00 0.  1.
         11   -1    0    0    0    0 -0.00000000000E+00 -0.00000000000E+00 -0.12500000000E+03  0.12500000000E+03  0.00000000000E+00 0. -1.
         24    1    1    2    0    0  0.51172033747E+02  0.60939086507E+02  0.53156699893E+02  0.12500000000E+03  0.80419002446E+02 0.  1.
        -24    1    1    2    0    0 -0.51172033747E+02 -0.60939086507E+02 -0.53156699893E+02  0.12500000000E+03  0.80419002446E+02 0. -1.
</event>
<event>
 4    1  0.1699921E-001  0.1250000E+03  0.7546771E-02  0.1126479E+00
        -11   -1    0    0    0    0  0.00000000000E+00  0.00000000000E+00  0.12500000000E+03  0.12500000000E+03  0.00000000000E+00 0.  1.
         11   -1    0    0    0    0 -0.00000000000E+00 -0.00000000000E+00 -0.12500000000E+03  0.12500000000E+03  0.00000000000E+00 0. -1.
         24    1    1    2    0    0  0.85743532506E+00 -0.14734217288E+02  0.94551317766E+02  0.12500000000E+03  0.80419002446E+02 0.  1.
        -24    1    1    2    0    0 -0.85743532506E+00  0.14734217288E+02 -0.94551317766E+02  0.12500000000E+03  0.80419002446E+02 0.  0.
</event>
<event>
 4    1  0.1699921E-001  0.1250000E+03  0.7546771E-02  0.1126479E+00
        -11   -1    0    0    0    0  0.00000000000E+00  0.00000000000E+00  0.12500000000E+03  0.12500000000E+03  0.00000000000E+00 0.  1.
         11   -1    0    0    0    0 -0.00000000000E+00 -0.00000000000E+00 -0.12500000000E+03  0.12500000000E+03  0.00000000000E+00 0. -1.
         24    1    1    2    0    0 -0.43286304509E+02 -0.20492772602E+02  0.82850022080E+02  0.12500000000E+03  0.80419002446E+02 0.  1.
        -24    1    1    2    0    0  0.43286304509E+02  0.20492772602E+02 -0.82850022080E+02  0.12500000000E+03  0.80419002446E+02 0. -1.
</event>
<event>
 4    1  0.1699921E-001  0.1250000E+03  0.7546771E-02  0.1126479E+00
        -11   -1    0    0    0    0  0.00000000000E+00  0.00000000000E+00  0.12500000000E+03  0.12500000000E+03  0.00000000000E+00 0.  1.
         11   -1    0    0    0    0 -0.00000000000E+00 -0.00000000000E+00 -0.12500000000E+03  0.12500000000E+03  0.00000000000E+00 0. -1.
         24    1    1    2    0    0 -0.18849278270E+02 -0.77111865907E+02  0.53443885438E+02  0.12500000000E+03  0.80419002446E+02 0.  1.
        -24    1    1    2    0    0  0.18849278270E+02  0.77111865907E+02 -0.53443885438E+02  0.12500000000E+03  0.80419002446E+02 0. -1.
</event>
<event>
 4    1  0.1699921E-001  0.1250000E+03  0.7546771E-02  0.1126479E+00
        -11   -1    0    0    0    0  0.00000000000E+00  0.00000000000E+00  0.12500000000E+03  0.12500000000E+03  0.00000000000E+00 0.  1.
         11   -1    0    0    0    0 -0.00000000000E+00 -0.00000000000E+00 -0.12500000000E+03  0.12500000000E+03  0.00000000000E+00 0. -1.
         24    1    1    2    0    0  0.29160191428E+02 -0.34082507015E+02  0.84533129583E+02  0.12500000000E+03  0.80419002446E+02 0.  1.
        -24    1    1    2    0    0 -0.29160191428E+02  0.34082507015E+02 -0.84533129583E+02  0.12500000000E+03  0.80419002446E+02 0. -1.
</event>
<event>
 4    1  0.1699921E-001  0.1250000E+03  0.7546771E-02  0.1126479E+00
        -11   -1    0    0    0    0  0.00000000000E+00  0.00000000000E+00  0.12500000000E+03  0.12500000000E+03  0.00000000000E+00 0.  1.
         11   -1    0    0    0    0 -0.00000000000E+00 -0.00000000000E+00 -0.12500000000E+03  0.12500000000E+03  0.00000000000E+00 0. -1.
         24    1    1    2    0    0  0.69951705760E+02  0.19335885965E+02  0.62375206781E+02  0.12500000000E+03  0.80419002446E+02 0.  0.
        -24    1    1    2    0    0 -0.69951705760E+02 -0.19335885965E+02 -0.62375206781E+02  0.12500000000E+03  0.80419002446E+02 0. -1.
</event>
<event>
 4    1  0.1699921E-001  0.1250000E+03  0.7546771E-02  0.1126479E+00
        -11   -1    0    0    0    0  0.00000000000E+00  0.00000000000E+00  0.12500000000E+03  0.12500000000E+03  0.00000000000E+00 0.  1.
         11   -1    0    0    0    0 -0.00000000000E+00 -0.00000000000E+00 -0.12500000000E+03  0.12500000000E+03  0.00000000000E+00 0. -1.
         24    1    1    2    0    0  0.44599356493E+02 -0.21322333387E+02  0.81939243010E+02  0.12500000000E+03  0.80419002446E+02 0.  1.
        -24    1    1    2    0    0 -0.44599356493E+02  0.21322333387E+02 -0.81939243010E+02  0.12500000000E+03  0.80419002446E+02 0. -1.
</event>
<event>
 4    1  0.1699921E-001  0.1250000E+03  0.7546771E-02  0.1126479E+00
        -11   -1    0    0    0    0  0.00000000000E+00  0.00000000000E+00  0.12500000000E+03  0.12500000000E+03  0.00000000000E+00 0.  1.
         11   -1    0    0    0    0 -0.00000000000E+00 -0.00000000000E+00 -0.12500000000E+03  0.12500000000E+03  0.00000000000E+00 0. -1.
         24    1    1    2    0    0  0.26385237197E+02  0.21613302369E+02  0.89411791529E+02  0.12500000000E+03  0.80419002446E+02 0.  1.
        -24    1    1    2    0    0 -0.26385237197E+02 -0.21613302369E+02 -0.89411791529E+02  0.12500000000E+03  0.80419002446E+02 0. -1.
</event>
<event>
 4    1  0.1699921E-001  0.1250000E+03  0.7546771E-02  0.1126479E+00
        -11   -1    0    0    0    0  0.00000000000E+00  0.00000000000E+00  0.12500000000E+03  0.12500000000E+03  0.00000000000E+00 0.  1.
         11   -1    0    0    0    0 -0.00000000000E+00 -0.00000000000E+00 -0.12500000000E+03  0.12500000000E+03  0.00000000000E+00 0. -1.
         24    1    1    2    0    0 -0.36599286090E+02  0.72105600375E+02  0.51176739813E+02  0.12500000000E+03  0.80419002446E+02 0.  0.
        -24    1    1    2    0    0  0.36599286090E+02 -0.72105600375E+02 -0.51176739813E+02  0.12500000000E+03  0.80419002446E+02 0. -1.
</event>
<event>
 4    1  0.1699921E-001  0.1250000E+03  0.7546771E-02  0.1126479E+00
        -11   -1    0    0    0    0  0.00000000000E+00  0.00000000000E+00  0.12500000000E+03  0.12500000000E+03  0.00000000000E+00 0.  1.
         11   -1    0    0    0    0 -0.00000000000E+00 -0.00000000000E+00 -0.12500000000E+03  0.12500000000E+03  0.00000000000E+00 0. -1.
         24    1    1    2    0    0  0.27363557756E+02 -0.47378041312E+02  0.78513317049E+02  0.12500000000E+03  0.80419002446E+02 0.  1.
        -24    1    1    2    0    0 -0.27363557756E+02  0.47378041312E+02 -0.78513317049E+02  0.12500000000E+03  0.80419002446E+02 0. -1.
</event>
<event>
 4    1  0.1699921E-001  0.1250000E+03  0.7546771E-02  0.1126479E+00
        -11   -1    0    0    0    0  0.00000000000E+00  0.00000000000E+00  0.12500000000E+03  0.12500000000E+03  0.00000000000E+00 0.  1.
         11   -1    0    0    0    0 -0.00000000000E+00 -0.00000000000E+00 -0.12500000000E+03  0.12500000000E+03  0.00000000000E+00 0. -1.
         24    1    1    2    0    0 -0.58346191794E+02 -0.65563508802E+02  0.38143574325E+02  0.12500000000E+03  0.80419002446E+02 0.  0.
        -24    1    1    2    0    0  0.58346191794E+02  0.65563508802E+02 -0.38143574325E+02  0.12500000000E+03  0.80419002446E+02 0. -1.
</event>
<event>
 4    1  0.1699921E-001  0.1250000E+03  0.7546771E-02  0.1126479E+00
        -11   -1    0    0    0    0  0.00000000000E+00  0.00000000000E+00  0.12500000000E+03  0.12500000000E+03  0.00000000000E+00 0.  1.
         11   -1    0    0    0    0 -0.00000000000E+00 -0.00000000000E+00 -0.12500000000E+03  0.12500000000E+03  0.00000000000E+00 0. -1.
         24    1    1    2    0    0  0.16066254316E+02  0.44847529291E+02  0.82996136262E+02  0.12500000000E+03  0.80419002446E+02 0.  1.
        -24    1    1    2    0    0 -0.16066254316E+02 -0.44847529291E+02 -0.82996136262E+02  0.12500000000E+03  0.80419002446E+02 0. -1.
</event>
<event>
 4    1  0.1699921E-001  0.1250000E+03  0.7546771E-02  0.1126479E+00
        -11   -1    0    0    0    0  0.00000000000E+00  0.00000000000E+00  0.12500000000E+03  0.12500000000E+03  0.00000000000E+00 0.  1.
         11   -1    0    0    0    0 -0.00000000000E+00 -0.00000000000E+00 -0.12500000000E+03  0.12500000000E+03  0.00000000000E+00 0. -1.
         24    1    1    2    0    0 -0.61697078270E+02 -0.61294504710E+02  0.39927913431E+02  0.12500000000E+03  0.80419002446E+02 0.  1.
        -24    1    1    2    0    0  0.61697078270E+02  0.61294504710E+02 -0.39927913431E+02  0.12500000000E+03  0.80419002446E+02 0. -1.
</event>
<event>
 4    1  0.1699921E-001  0.1250000E+03  0.7546771E-02  0.1126479E+00
        -11   -1    0    0    0    0  0.00000000000E+00  0.00000000000E+00  0.12500000000E+03  0.12500000000E+03  0.00000000000E+00 0.  1.
         11   -1    0    0    0    0 -0.00000000000E+00 -0.00000000000E+00 -0.12500000000E+03  0.12500000000E+03  0.00000000000E+00 0. -1.
         24    1    1    2    0    0  0.30485267926E+02 -0.88144400124E+02  0.21424220218E+02  0.12500000000E+03  0.80419002446E+02 0.  0.
        -24    1    1    2    0    0 -0.30485267926E+02  0.88144400124E+02 -0.21424220218E+02  0.12500000000E+03  0.80419002446E+02 0.  0.
</event>
<event>
 4    1  0.1699921E-001  0.1250000E+03  0.7546771E-02  0.1126479E+00
        -11   -1    0    0    0    0  0.00000000000E+00  0.00000000000E+00  0.12500000000E+03  0.12500000000E+03  0.00000000000E+00 0.  1.
         11   -1    0    0    0    0 -0.00000000000E+00 -0.00000000000E+00 -0.12500000000E+03  0.12500000000E+03  0.00000000000E+00 0. -1.
         24    1    1    2    0    0  0.67448903265E+02 -0.53015078603E+02  0.42400836486E+02  0.12500000000E+03  0.80419002446E+02 0.  1.
        -24    1    1    2    0    0 -0.67448903265E+02  0.53015078603E+02 -0.42400836486E+02  0.12500000000E+03  0.80419002446E+02 0. -1.
</event>
<event>
 4    1  0.1699921E-001  0.1250000E+03  0.7546771E-02  0.1126479E+00
        -11   -1    0    0    0    0  0.00000000000E+00  0.00000000000E+00  0.12500000000E+03  0.12500000000E+03  0.00000000000E+00 0.  1.
         11   -1    0    0    0    0 -0.00000000000E+00 -0.00000000000E+00 -0.12500000000E+03  0.12500000000E+03  0.00000000000E+00 0. -1.
         24    1    1    2    0    0  0.20447000235E+02  0.15812109476E+02  0.92139467228E+02  0.12500000000E+03  0.80419002446E+02 0.  1.
        -24    1    1    2    0    0 -0.20447000235E+02 -0.15812109476E+02 -0.92139467228E+02  0.12500000000E+03  0.80419002446E+02 0.  1.
</event>
<event>
 4    1  0.1699921E-001  0.1250000E+03  0.7546771E-02  0.1126479E+00
        -11   -1    0    0    0    0  0.00000000000E+00  0.00000000000E+00  0.12500000000E+03  0.12500000000E+03  0.00000000000E+00 0.  1.
         11   -1    0    0    0    0 -0.00000000000E+00 -0.00000000000E+00 -0.12500000000E+03  0.12500000000E+03  0.00000000000E+00 0. -1.
         24    1    1    2    0    0 -0.49101449655E+02 -0.31226809217E+00  0.82138506050E+02  0.12500000000E+03  0.80419002446E+02 0.  1.
        -24    1    1    2    0    0  0.49101449655E+02  0.31226809217E+00 -0.82138506050E+02  0.12500000000E+03  0.80419002446E+02 0. -1.
</event>
<event>
 4    1  0.1699921E-001  0.1250000E+03  0.7546771E-02  0.1126479E+00
        -11   -1    0    0    0    0  0.00000000000E+00  0.00000000000E+00  0.12500000000E+03  0.12500000000E+03  0.00000000000E+00 0.  1.
         11   -1    0    0    0    0 -0.00000000000E+00 -0.00000000000E+00 -0.12500000000E+03  0.12500000000E+03  0.00000000000E+00 0. -1.
         24    1    1    2    0    0  0.29199193159E+02  0.16227864488E+02  0.89676349049E+02  0.12500000000E+03  0.80419002446E+02 0.  1.
        -24    1    1    2    0    0 -0.29199193159E+02 -0.16227864488E+02 -0.89676349049E+02  0.12500000000E+03  0.80419002446E+02 0. -1.
</event>
<event>
 4    1  0.1699921E-001  0.1250000E+03  0.7546771E-02  0.1126479E+00
        -11   -1    0    0    0    0  0.00000000000E+00  0.00000000000E+00  0.12500000000E+03  0.12500000000E+03  0.00000000000E+00 0.  1.
         11   -1    0    0    0    0 -0.00000000000E+00 -0.00000000000E+00 -0.12500000000E+03  0.12500000000E+03  0.00000000000E+00 0. -1.
         24    1    1    2    0    0  0.62064812040E+02 -0.31277778933E+02  0.65783308651E+02  0.12500000000E+03  0.80419002446E+02 0.  1.
        -24    1    1    2    0    0 -0.62064812040E+02  0.31277778933E+02 -0.65783308651E+02  0.12500000000E+03  0.80419002446E+02 0. -1.
</event>
<event>
 4    1  0.1699921E-001  0.1250000E+03  0.7546771E-02  0.1126479E+00
        -11   -1    0    0    0    0  0.00000000000E+00  0.00000000000E+00  0.12500000000E+03  0.12500000000E+03  0.00000000000E+00 0.  1.
         11   -1    0    0    0    0 -0.00000000000E+00 -0.00000000000E+00 -0.12500000000E+03  0.12500000000E+03  0.00000000000E+00 0. -1.
         24    1    1    2    0    0 -0.29468680086E+02  0.63638401835E+01  0.90823358657E+02  0.12500000000E+03  0.80419002446E+02 0.  0.
        -24    1    1    2    0    0  0.29468680086E+02 -0.63638401835E+01 -0.90823358657E+02  0.12500000000E+03  0.80419002446E+02 0.  0.
</event>
<event>
 4    1  0.1699921E-001  0.1250000E+03  0.7546771E-02  0.1126479E+00
        -11   -1    0    0    0    0  0.00000000000E+00  0.00000000000E+00  0.12500000000E+03  0.12500000000E+03  0.00000000000E+00 0.  1.
         11   -1    0    0    0    0 -0.00000000000E+00 -0.00000000000E+00 -0.12500000000E+03  0.12500000000E+03  0.00000000000E+00 0. -1.
         24    1    1    2    0    0  0.17721195401E+02  0.45499781100E+02  0.82301355998E+02  0.12500000000E+03  0.80419002446E+02 0.  1.
        -24    1    1    2    0    0 -0.17721195401E+02 -0.45499781100E+02 -0.82301355998E+02  0.12500000000E+03  0.80419002446E+02 0. -1.
</event>
<event>
 4    1  0.1699921E-001  0.1250000E+03  0.7546771E-02  0.1126479E+00
        -11   -1    0    0    0    0  0.00000000000E+00  0.00000000000E+00  0.12500000000E+03  0.12500000000E+03  0.00000000000E+00 0.  1.
         11   -1    0    0    0    0 -0.00000000000E+00 -0.00000000000E+00 -0.12500000000E+03  0.12500000000E+03  0.00000000000E+00 0. -1.
         24    1    1    2    0    0 -0.32510680359E+02  0.10039203275E+02  0.89443021560E+02  0.12500000000E+03  0.80419002446E+02 0.  1.
        -24    1    1    2    0    0  0.32510680359E+02 -0.10039203275E+02 -0.89443021560E+02  0.12500000000E+03  0.80419002446E+02 0. -1.
</event>
<event>
 4    1  0.1699921E-001  0.1250000E+03  0.7546771E-02  0.1126479E+00
        -11   -1    0    0    0    0  0.00000000000E+00  0.00000000000E+00  0.12500000000E+03  0.12500000000E+03  0.00000000000E+00 0.  1.
         11   -1    0    0    0    0 -0.00000000000E+00 -0.00000000000E+00 -0.12500000000E+03  0.12500000000E+03  0.00000000000E+00 0. -1.
         24    1    1    2    0    0  0.93218275399E+02  0.40567460169E+01  0.21252764268E+02  0.12500000000E+03  0.80419002446E+02 0.  1.
        -24    1    1    2    0    0 -0.93218275399E+02 -0.40567460169E+01 -0.21252764268E+02  0.12500000000E+03  0.80419002446E+02 0. -1.
</event>
<event>
 4    1  0.1699921E-001  0.1250000E+03  0.7546771E-02  0.1126479E+00
        -11   -1    0    0    0    0  0.00000000000E+00  0.00000000000E+00  0.12500000000E+03  0.12500000000E+03  0.00000000000E+00 0.  1.
         11   -1    0    0    0    0 -0.00000000000E+00 -0.00000000000E+00 -0.12500000000E+03  0.12500000000E+03  0.00000000000E+00 0. -1.
         24    1    1    2    0    0 -0.55647019786E+02  0.28492933599E+02  0.72452370351E+02  0.12500000000E+03  0.80419002446E+02 0.  1.
        -24    1    1    2    0    0  0.55647019786E+02 -0.28492933599E+02 -0.72452370351E+02  0.12500000000E+03  0.80419002446E+02 0. -1.
</event>
<event>
 4    1  0.1699921E-001  0.1250000E+03  0.7546771E-02  0.1126479E+00
        -11   -1    0    0    0    0  0.00000000000E+00  0.00000000000E+00  0.12500000000E+03  0.12500000000E+03  0.00000000000E+00 0.  1.
         11   -1    0    0    0    0 -0.00000000000E+00 -0.00000000000E+00 -0.12500000000E+03  0.12500000000E+03  0.00000000000E+00 0. -1.
         24    1    1    2    0    0  0.35686825289E+02 -0.48724245020E+02  0.74230603485E+02  0.12500000000E+03  0.80419002446E+02 0.  1.
        -24    1    1    2    0    0 -0.35686825289E+02  0.48724245020E+02 -0.74230603485E+02  0.12500000000E+03  0.80419002446E+02 0. -1.
</event>
<event>
 4    1  0.1699921E-001  0.1250000E+03  0.7546771E-02  0.1126479E+00
        -11   -1    0    0    0    0  0.00000000000E+00  0.00000000000E+00  0.12500000000E+03  0.12500000000E+03  0.00000000000E+00 0.  1.
         11   -1    0    0    0    0 -0.00000000000E+00 -0.00000000000E+00 -0.12500000000E+03  0.12500000000E+03  0.00000000000E+00 0. -1.
         24    1    1    2    0    0  0.73555060012E+01  0.10565347695E+02  0.94826441487E+02  0.12500000000E+03  0.80419002446E+02 0.  1.
        -24    1    1    2    0    0 -0.73555060012E+01 -0.10565347695E+02 -0.94826441487E+02  0.12500000000E+03  0.80419002446E+02 0.  0.
</event>
<event>
 4    1  0.1699921E-001  0.1250000E+03  0.7546771E-02  0.1126479E+00
        -11   -1    0    0    0    0  0.00000000000E+00  0.00000000000E+00  0.12500000000E+03  0.12500000000E+03  0.00000000000E+00 0.  1.
         11   -1    0    0    0    0 -0.00000000000E+00 -0.00000000000E+00 -0.12500000000E+03  0.12500000000E+03  0.00000000000E+00 0. -1.
         24    1    1    2    0    0 -0.39924495063E+02 -0.36262448449E+02  0.79049690525E+02  0.12500000000E+03  0.80419002446E+02 0.  1.
        -24    1    1    2    0    0  0.39924495063E+02  0.36262448449E+02 -0.79049690525E+02  0.12500000000E+03  0.80419002446E+02 0. -1.
</event>
<event>
 4    1  0.1699921E-001  0.1250000E+03  0.7546771E-02  0.1126479E+00
        -11   -1    0    0    0    0  0.00000000000E+00  0.00000000000E+00  0.12500000000E+03  0.12500000000E+03  0.00000000000E+00 0.  1.
         11   -1    0    0    0    0 -0.00000000000E+00 -0.00000000000E+00 -0.12500000000E+03  0.12500000000E+03  0.00000000000E+00 0. -1.
         24    1    1    2    0    0  0.10395957604E+02 -0.60622050646E+02  0.73312175569E+02  0.12500000000E+03  0.80419002446E+02 0.  1.
        -24    1    1    2    0    0 -0.10395957604E+02  0.60622050646E+02 -0.73312175569E+02  0.12500000000E+03  0.80419002446E+02 0. -1.
</event>
<event>
 4    1  0.1699921E-001  0.1250000E+03  0.7546771E-02  0.1126479E+00
        -11   -1    0    0    0    0  0.00000000000E+00  0.00000000000E+00  0.12500000000E+03  0.12500000000E+03  0.00000000000E+00 0.  1.
         11   -1    0    0    0    0 -0.00000000000E+00 -0.00000000000E+00 -0.12500000000E+03  0.12500000000E+03  0.00000000000E+00 0. -1.
         24    1    1    2    0    0  0.62241562862E+02 -0.59934324089E+01  0.72442050400E+02  0.12500000000E+03  0.80419002446E+02 0.  1.
        -24    1    1    2    0    0 -0.62241562862E+02  0.59934324089E+01 -0.72442050400E+02  0.12500000000E+03  0.80419002446E+02 0. -1.
</event>
<event>
 4    1  0.1699921E-001  0.1250000E+03  0.7546771E-02  0.1126479E+00
        -11   -1    0    0    0    0  0.00000000000E+00  0.00000000000E+00  0.12500000000E+03  0.12500000000E+03  0.00000000000E+00 0.  1.
         11   -1    0    0    0    0 -0.00000000000E+00 -0.00000000000E+00 -0.12500000000E+03  0.12500000000E+03  0.00000000000E+00 0. -1.
         24    1    1    2    0    0 -0.50348334893E+02  0.15033250673E+01  0.81366880442E+02  0.12500000000E+03  0.80419002446E+02 0.  1.
        -24    1    1    2    0    0  0.50348334893E+02 -0.15033250673E+01 -0.81366880442E+02  0.12500000000E+03  0.80419002446E+02 0. -1.
</event>
<event>
 4    1  0.1699921E-001  0.1250000E+03  0.7546771E-02  0.1126479E+00
        -11   -1    0    0    0    0  0.00000000000E+00  0.00000000000E+00  0.12500000000E+03  0.12500000000E+03  0.00000000000E+00 0.  1.
         11   -1    0    0    0    0 -0.00000000000E+00 -0.00000000000E+00 -0.12500000000E+03  0.12500000000E+03  0.00000000000E+00 0. -1.
         24    1    1    2    0    0  0.48952627040E+02  0.31349694314E+02  0.76017241583E+02  0.12500000000E+03  0.80419002446E+02 0. -1.
        -24    1    1    2    0    0 -0.48952627040E+02 -0.31349694314E+02 -0.76017241583E+02  0.12500000000E+03  0.80419002446E+02 0. -1.
</event>
<event>
 4    1  0.1699921E-001  0.1250000E+03  0.7546771E-02  0.1126479E+00
        -11   -1    0    0    0    0  0.00000000000E+00  0.00000000000E+00  0.12500000000E+03  0.12500000000E+03  0.00000000000E+00 0.  1.
         11   -1    0    0    0    0 -0.00000000000E+00 -0.00000000000E+00 -0.12500000000E+03  0.12500000000E+03  0.00000000000E+00 0. -1.
         24    1    1    2    0    0 -0.48861165170E+02  0.77640648817E+01  0.81915138286E+02  0.12500000000E+03  0.80419002446E+02 0.  1.
        -24    1    1    2    0    0  0.48861165170E+02 -0.77640648817E+01 -0.81915138286E+02  0.12500000000E+03  0.80419002446E+02 0. -1.
</event>
<event>
 4    1  0.1699921E-001  0.1250000E+03  0.7546771E-02  0.1126479E+00
        -11   -1    0    0    0    0  0.00000000000E+00  0.00000000000E+00  0.12500000000E+03  0.12500000000E+03  0.00000000000E+00 0.  1.
         11   -1    0    0    0    0 -0.00000000000E+00 -0.00000000000E+00 -0.12500000000E+03  0.12500000000E+03  0.00000000000E+00 0. -1.
         24    1    1    2    0    0 -0.43914698650E+02 -0.14627932378E+02  0.83757428819E+02  0.12500000000E+03  0.80419002446E+02 0.  1.
        -24    1    1    2    0    0  0.43914698650E+02  0.14627932378E+02 -0.83757428819E+02  0.12500000000E+03  0.80419002446E+02 0. -1.
</event>
<event>
 4    1  0.1699921E-001  0.1250000E+03  0.7546771E-02  0.1126479E+00
        -11   -1    0    0    0    0  0.00000000000E+00  0.00000000000E+00  0.12500000000E+03  0.12500000000E+03  0.00000000000E+00 0.  1.
         11   -1    0    0    0    0 -0.00000000000E+00 -0.00000000000E+00 -0.12500000000E+03  0.12500000000E+03  0.00000000000E+00 0. -1.
         24    1    1    2    0    0 -0.10638140740E+02  0.29687911018E+02  0.90350661019E+02  0.12500000000E+03  0.80419002446E+02 0.  1.
        -24    1    1    2    0    0  0.10638140740E+02 -0.29687911018E+02 -0.90350661019E+02  0.12500000000E+03  0.80419002446E+02 0. -1.
</event>
<event>
 4    1  0.1699921E-001  0.1250000E+03  0.7546771E-02  0.1126479E+00
        -11   -1    0    0    0    0  0.00000000000E+00  0.00000000000E+00  0.12500000000E+03  0.12500000000E+03  0.00000000000E+00 0.  1.
         11   -1    0    0    0    0 -0.00000000000E+00 -0.00000000000E+00 -0.12500000000E+03  0.12500000000E+03  0.00000000000E+00 0. -1.
         24    1    1    2    0    0  0.40988205028E+02 -0.33245520005E+02  0.79827855375E+02  0.12500000000E+03  0.80419002446E+02 0.  1.
        -24    1    1    2    0    0 -0.40988205028E+02  0.33245520005E+02 -0.79827855375E+02  0.12500000000E+03  0.80419002446E+02 0. -1.
</event>
<event>
 4    1  0.1699921E-001  0.1250000E+03  0.7546771E-02  0.1126479E+00
        -11   -1    0    0    0    0  0.00000000000E+00  0.00000000000E+00  0.12500000000E+03  0.12500000000E+03  0.00000000000E+00 0.  1.
         11   -1    0    0    0    0 -0.00000000000E+00 -0.00000000000E+00 -0.12500000000E+03  0.12500000000E+03  0.00000000000E+00 0. -1.
         24    1    1    2    0    0  0.22289812350E+01 -0.40442565595E+01  0.95584829744E+02  0.12500000000E+03  0.80419002446E+02 0.  1.
        -24    1    1    2    0    0 -0.22289812350E+01  0.40442565595E+01 -0.95584829744E+02  0.12500000000E+03  0.80419002446E+02 0. -1.
</event>
<event>
 4    1  0.1699921E-001  0.1250000E+03  0.7546771E-02  0.1126479E+00
        -11   -1    0    0    0    0  0.00000000000E+00  0.00000000000E+00  0.12500000000E+03  0.12500000000E+03  0.00000000000E+00 0.  1.
         11   -1    0    0    0    0 -0.00000000000E+00 -0.00000000000E+00 -0.12500000000E+03  0.12500000000E+03  0.00000000000E+00 0. -1.
         24    1    1    2    0    0 -0.79031891677E+02 -0.49273375393E+01  0.53735142024E+02  0.12500000000E+03  0.80419002446E+02 0.  1.
        -24    1    1    2    0    0  0.79031891677E+02  0.49273375393E+01 -0.53735142024E+02  0.12500000000E+03  0.80419002446E+02 0. -1.
</event>
<event>
 4    1  0.1699921E-001  0.1250000E+03  0.7546771E-02  0.1126479E+00
        -11   -1    0    0    0    0  0.00000000000E+00  0.00000000000E+00  0.12500000000E+03  0.12500000000E+03  0.00000000000E+00 0.  1.
         11   -1    0    0    0    0 -0.00000000000E+00 -0.00000000000E+00 -0.12500000000E+03  0.12500000000E+03  0.00000000000E+00 0. -1.
         24    1    1    2    0    0 -0.37488298234E+02 -0.18735711803E+02  0.86031300376E+02  0.12500000000E+03  0.80419002446E+02 0.  1.
        -24    1    1    2    0    0  0.37488298234E+02  0.18735711803E+02 -0.86031300376E+02  0.12500000000E+03  0.80419002446E+02 0. -1.
</event>
<event>
 4    1  0.1699921E-001  0.1250000E+03  0.7546771E-02  0.1126479E+00
        -11   -1    0    0    0    0  0.00000000000E+00  0.00000000000E+00  0.12500000000E+03  0.12500000000E+03  0.00000000000E+00 0.  1.
         11   -1    0    0    0    0 -0.00000000000E+00 -0.00000000000E+00 -0.12500000000E+03  0.12500000000E+03  0.00000000000E+00 0. -1.
         24    1    1    2    0    0  0.43238358788E+02  0.80584667442E+01 -0.84989937573E+02  0.12500000000E+03  0.80419002446E+02 0.  0.
        -24    1    1    2    0    0 -0.43238358788E+02 -0.80584667442E+01  0.84989937573E+02  0.12500000000E+03  0.80419002446E+02 0.  0.
</event>
<event>
 4    1  0.1699921E-001  0.1250000E+03  0.7546771E-02  0.1126479E+00
        -11   -1    0    0    0    0  0.00000000000E+00  0.00000000000E+00  0.12500000000E+03  0.12500000000E+03  0.00000000000E+00 0.  1.
         11   -1    0    0    0    0 -0.00000000000E+00 -0.00000000000E+00 -0.12500000000E+03  0.12500000000E+03  0.00000000000E+00 0. -1.
         24    1    1    2    0    0  0.46537478567E+02  0.83315807374E+02  0.71079797269E+01  0.12500000000E+03  0.80419002446E+02 0.  1.
        -24    1    1    2    0    0 -0.46537478567E+02 -0.83315807374E+02 -0.71079797269E+01  0.12500000000E+03  0.80419002446E+02 0. -1.
</event>
<event>
 4    1  0.1699921E-001  0.1250000E+03  0.7546771E-02  0.1126479E+00
        -11   -1    0    0    0    0  0.00000000000E+00  0.00000000000E+00  0.12500000000E+03  0.12500000000E+03  0.00000000000E+00 0.  1.
         11   -1    0    0    0    0 -0.00000000000E+00 -0.00000000000E+00 -0.12500000000E+03  0.12500000000E+03  0.00000000000E+00 0. -1.
         24    1    1    2    0    0 -0.45051667577E+02  0.76963694739E+02 -0.34709090830E+02  0.12500000000E+03  0.80419002446E+02 0.  0.
        -24    1    1    2    0    0  0.45051667577E+02 -0.76963694739E+02  0.34709090830E+02  0.12500000000E+03  0.80419002446E+02 0. -1.
</event>
<event>
 4    1  0.1699921E-001  0.1250000E+03  0.7546771E-02  0.1126479E+00
        -11   -1    0    0    0    0  0.00000000000E+00  0.00000000000E+00  0.12500000000E+03  0.12500000000E+03  0.00000000000E+00 0.  1.
         11   -1    0    0    0    0 -0.00000000000E+00 -0.00000000000E+00 -0.12500000000E+03  0.12500000000E+03  0.00000000000E+00 0. -1.
         24    1    1    2    0    0 -0.57320714676E+02  0.29902479924E+01  0.76571392384E+02  0.12500000000E+03  0.80419002446E+02 0.  0.
        -24    1    1    2    0    0  0.57320714676E+02 -0.29902479924E+01 -0.76571392384E+02  0.12500000000E+03  0.80419002446E+02 0.  0.
</event>
<event>
 4    1  0.1699921E-001  0.1250000E+03  0.7546771E-02  0.1126479E+00
        -11   -1    0    0    0    0  0.00000000000E+00  0.00000000000E+00  0.12500000000E+03  0.12500000000E+03  0.00000000000E+00 0.  1.
         11   -1    0    0    0    0 -0.00000000000E+00 -0.00000000000E+00 -0.12500000000E+03  0.12500000000E+03  0.00000000000E+00 0. -1.
         24    1    1    2    0    0 -0.18129653765E+02  0.10568906201E+02  0.93367006601E+02  0.12500000000E+03  0.80419002446E+02 0.  0.
        -24    1    1    2    0    0  0.18129653765E+02 -0.10568906201E+02 -0.93367006601E+02  0.12500000000E+03  0.80419002446E+02 0.  0.
</event>
<event>
 4    1  0.1699921E-001  0.1250000E+03  0.7546771E-02  0.1126479E+00
        -11   -1    0    0    0    0  0.00000000000E+00  0.00000000000E+00  0.12500000000E+03  0.12500000000E+03  0.00000000000E+00 0.  1.
         11   -1    0    0    0    0 -0.00000000000E+00 -0.00000000000E+00 -0.12500000000E+03  0.12500000000E+03  0.00000000000E+00 0. -1.
         24    1    1    2    0    0  0.42957607343E+02  0.17827936424E+02  0.83633681611E+02  0.12500000000E+03  0.80419002446E+02 0.  1.
        -24    1    1    2    0    0 -0.42957607343E+02 -0.17827936424E+02 -0.83633681611E+02  0.12500000000E+03  0.80419002446E+02 0. -1.
</event>
<event>
 4    1  0.1699921E-001  0.1250000E+03  0.7546771E-02  0.1126479E+00
        -11   -1    0    0    0    0  0.00000000000E+00  0.00000000000E+00  0.12500000000E+03  0.12500000000E+03  0.00000000000E+00 0.  1.
         11   -1    0    0    0    0 -0.00000000000E+00 -0.00000000000E+00 -0.12500000000E+03  0.12500000000E+03  0.00000000000E+00 0. -1.
         24    1    1    2    0    0 -0.50036879307E+01  0.11726980110E+02  0.94843160482E+02  0.12500000000E+03  0.80419002446E+02 0.  1.
        -24    1    1    2    0    0  0.50036879307E+01 -0.11726980110E+02 -0.94843160482E+02  0.12500000000E+03  0.80419002446E+02 0.  0.
</event>
<event>
 4    1  0.1699921E-001  0.1250000E+03  0.7546771E-02  0.1126479E+00
        -11   -1    0    0    0    0  0.00000000000E+00  0.00000000000E+00  0.12500000000E+03  0.12500000000E+03  0.00000000000E+00 0.  1.
         11   -1    0    0    0    0 -0.00000000000E+00 -0.00000000000E+00 -0.12500000000E+03  0.12500000000E+03  0.00000000000E+00 0. -1.
         24    1    1    2    0    0 -0.26933082611E+02  0.57293661337E+01  0.91649154226E+02  0.12500000000E+03  0.80419002446E+02 0.  1.
        -24    1    1    2    0    0  0.26933082611E+02 -0.57293661337E+01 -0.91649154226E+02  0.12500000000E+03  0.80419002446E+02 0. -1.
</event>
<event>
 4    1  0.1699921E-001  0.1250000E+03  0.7546771E-02  0.1126479E+00
        -11   -1    0    0    0    0  0.00000000000E+00  0.00000000000E+00  0.12500000000E+03  0.12500000000E+03  0.00000000000E+00 0.  1.
         11   -1    0    0    0    0 -0.00000000000E+00 -0.00000000000E+00 -0.12500000000E+03  0.12500000000E+03  0.00000000000E+00 0. -1.
         24    1    1    2    0    0  0.14698751660E+02  0.46383522002E+01  0.94446897430E+02  0.12500000000E+03  0.80419002446E+02 0.  1.
        -24    1    1    2    0    0 -0.14698751660E+02 -0.46383522002E+01 -0.94446897430E+02  0.12500000000E+03  0.80419002446E+02 0.  0.
</event>
<event>
 4    1  0.1699921E-001  0.1250000E+03  0.7546771E-02  0.1126479E+00
        -11   -1    0    0    0    0  0.00000000000E+00  0.00000000000E+00  0.12500000000E+03  0.12500000000E+03  0.00000000000E+00 0.  1.
         11   -1    0    0    0    0 -0.00000000000E+00 -0.00000000000E+00 -0.12500000000E+03  0.12500000000E+03  0.00000000000E+00 0. -1.
         24    1    1    2    0    0 -0.20734825402E+02  0.18379669218E+02  0.91597155090E+02  0.12500000000E+03  0.80419002446E+02 0.  1.
        -24    1    1    2    0    0  0.20734825402E+02 -0.18379669218E+02 -0.91597155090E+02  0.12500000000E+03  0.80419002446E+02 0.  0.
</event>
<event>
 4    1  0.1699921E-001  0.1250000E+03  0.7546771E-02  0.1126479E+00
        -11   -1    0    0    0    0  0.00000000000E+00  0.00000000000E+00  0.12500000000E+03  0.12500000000E+03  0.00000000000E+00 0.  1.
         11   -1    0    0    0    0 -0.00000000000E+00 -0.00000000000E+00 -0.12500000000E+03  0.12500000000E+03  0.00000000000E+00 0. -1.
         24    1    1    2    0    0 -0.38813681379E+02 -0.85550619123E+02  0.18231120405E+02  0.12500000000E+03  0.80419002446E+02 0.  1.
        -24    1    1    2    0    0  0.38813681379E+02  0.85550619123E+02 -0.18231120405E+02  0.12500000000E+03  0.80419002446E+02 0. -1.
</event>
<event>
 4    1  0.1699921E-001  0.1250000E+03  0.7546771E-02  0.1126479E+00
        -11   -1    0    0    0    0  0.00000000000E+00  0.00000000000E+00  0.12500000000E+03  0.12500000000E+03  0.00000000000E+00 0.  1.
         11   -1    0    0    0    0 -0.00000000000E+00 -0.00000000000E+00 -0.12500000000E+03  0.12500000000E+03  0.00000000000E+00 0. -1.
         24    1    1    2    0    0 -0.15428219875E+02  0.86944721641E+02  0.36883186628E+02  0.12500000000E+03  0.80419002446E+02 0. -1.
        -24    1    1    2    0    0  0.15428219875E+02 -0.86944721641E+02 -0.36883186628E+02  0.12500000000E+03  0.80419002446E+02 0.  0.
</event>
<event>
 4    1  0.1699921E-001  0.1250000E+03  0.7546771E-02  0.1126479E+00
        -11   -1    0    0    0    0  0.00000000000E+00  0.00000000000E+00  0.12500000000E+03  0.12500000000E+03  0.00000000000E+00 0.  1.
         11   -1    0    0    0    0 -0.00000000000E+00 -0.00000000000E+00 -0.12500000000E+03  0.12500000000E+03  0.00000000000E+00 0. -1.
         24    1    1    2    0    0  0.32270608683E+02 -0.91524798114E+01  0.89624907108E+02  0.12500000000E+03  0.80419002446E+02 0.  1.
        -24    1    1    2    0    0 -0.32270608683E+02  0.91524798114E+01 -0.89624907108E+02  0.12500000000E+03  0.80419002446E+02 0. -1.
</event>
<event>
 4    1  0.1699921E-001  0.1250000E+03  0.7546771E-02  0.1126479E+00
        -11   -1    0    0    0    0  0.00000000000E+00  0.00000000000E+00  0.12500000000E+03  0.12500000000E+03  0.00000000000E+00 0.  1.
         11   -1    0    0    0    0 -0.00000000000E+00 -0.00000000000E+00 -0.12500000000E+03  0.12500000000E+03  0.00000000000E+00 0. -1.
         24    1    1    2    0    0  0.82538829414E+01 -0.22553992192E+02  0.92633551687E+02  0.12500000000E+03  0.80419002446E+02 0.  1.
        -24    1    1    2    0    0 -0.82538829414E+01  0.22553992192E+02 -0.92633551687E+02  0.12500000000E+03  0.80419002446E+02 0. -1.
</event>
<event>
 4    1  0.1699921E-001  0.1250000E+03  0.7546771E-02  0.1126479E+00
        -11   -1    0    0    0    0  0.00000000000E+00  0.00000000000E+00  0.12500000000E+03  0.12500000000E+03  0.00000000000E+00 0.  1.
         11   -1    0    0    0    0 -0.00000000000E+00 -0.00000000000E+00 -0.12500000000E+03  0.12500000000E+03  0.00000000000E+00 0. -1.
         24    1    1    2    0    0 -0.73270636476E+02  0.45692494686E+02  0.41247955167E+02  0.12500000000E+03  0.80419002446E+02 0.  1.
        -24    1    1    2    0    0  0.73270636476E+02 -0.45692494686E+02 -0.41247955167E+02  0.12500000000E+03  0.80419002446E+02 0. -1.
</event>
<event>
 4    1  0.1699921E-001  0.1250000E+03  0.7546771E-02  0.1126479E+00
        -11   -1    0    0    0    0  0.00000000000E+00  0.00000000000E+00  0.12500000000E+03  0.12500000000E+03  0.00000000000E+00 0.  1.
         11   -1    0    0    0    0 -0.00000000000E+00 -0.00000000000E+00 -0.12500000000E+03  0.12500000000E+03  0.00000000000E+00 0. -1.
         24    1    1    2    0    0  0.47230165067E+02  0.79344477324E+02  0.25130648053E+02  0.12500000000E+03  0.80419002446E+02 0. -1.
        -24    1    1    2    0    0 -0.47230165067E+02 -0.79344477324E+02 -0.25130648053E+02  0.12500000000E+03  0.80419002446E+02 0.  1.
</event>
<event>
 4    1  0.1699921E-001  0.1250000E+03  0.7546771E-02  0.1126479E+00
        -11   -1    0    0    0    0  0.00000000000E+00  0.00000000000E+00  0.12500000000E+03  0.12500000000E+03  0.00000000000E+00 0.  1.
         11   -1    0    0    0    0 -0.00000000000E+00 -0.00000000000E+00 -0.12500000000E+03  0.12500000000E+03  0.00000000000E+00 0. -1.
         24    1    1    2    0    0 -0.16684717510E+01 -0.15609955401E+02  0.94399838665E+02  0.12500000000E+03  0.80419002446E+02 0.  1.
        -24    1    1    2    0    0  0.16684717510E+01  0.15609955401E+02 -0.94399838665E+02  0.12500000000E+03  0.80419002446E+02 0.  1.
</event>
<event>
 4    1  0.1699921E-001  0.1250000E+03  0.7546771E-02  0.1126479E+00
        -11   -1    0    0    0    0  0.00000000000E+00  0.00000000000E+00  0.12500000000E+03  0.12500000000E+03  0.00000000000E+00 0.  1.
         11   -1    0    0    0    0 -0.00000000000E+00 -0.00000000000E+00 -0.12500000000E+03  0.12500000000E+03  0.00000000000E+00 0. -1.
         24    1    1    2    0    0  0.20378308178E+02 -0.55291889297E+02  0.75401031687E+02  0.12500000000E+03  0.80419002446E+02 0.  1.
        -24    1    1    2    0    0 -0.20378308178E+02  0.55291889297E+02 -0.75401031687E+02  0.12500000000E+03  0.80419002446E+02 0. -1.
</event>
<event>
 4    1  0.1699921E-001  0.1250000E+03  0.7546771E-02  0.1126479E+00
        -11   -1    0    0    0    0  0.00000000000E+00  0.00000000000E+00  0.12500000000E+03  0.12500000000E+03  0.00000000000E+00 0.  1.
         11   -1    0    0    0    0 -0.00000000000E+00 -0.00000000000E+00 -0.12500000000E+03  0.12500000000E+03  0.00000000000E+00 0. -1.
         24    1    1    2    0    0 -0.73926587484E+02 -0.60764014863E+02  0.61498477187E+00  0.12500000000E+03  0.80419002446E+02 0.  0.
        -24    1    1    2    0    0  0.73926587484E+02  0.60764014863E+02 -0.61498477187E+00  0.12500000000E+03  0.80419002446E+02 0. -1.
</event>
<event>
 4    1  0.1699921E-001  0.1250000E+03  0.7546771E-02  0.1126479E+00
        -11   -1    0    0    0    0  0.00000000000E+00  0.00000000000E+00  0.12500000000E+03  0.12500000000E+03  0.00000000000E+00 0.  1.
         11   -1    0    0    0    0 -0.00000000000E+00 -0.00000000000E+00 -0.12500000000E+03  0.12500000000E+03  0.00000000000E+00 0. -1.
         24    1    1    2    0    0  0.33727707762E+02  0.16326581199E+02  0.88054917643E+02  0.12500000000E+03  0.80419002446E+02 0.  1.
        -24    1    1    2    0    0 -0.33727707762E+02 -0.16326581199E+02 -0.88054917643E+02  0.12500000000E+03  0.80419002446E+02 0. -1.
</event>
<event>
 4    1  0.1699921E-001  0.1250000E+03  0.7546771E-02  0.1126479E+00
        -11   -1    0    0    0    0  0.00000000000E+00  0.00000000000E+00  0.12500000000E+03  0.12500000000E+03  0.00000000000E+00 0.  1.
         11   -1    0    0    0    0 -0.00000000000E+00 -0.00000000000E+00 -0.12500000000E+03  0.12500000000E+03  0.00000000000E+00 0. -1.
         24    1    1    2    0    0  0.19645840146E+02  0.40756851887E+02  0.84324990571E+02  0.12500000000E+03  0.80419002446E+02 0.  1.
        -24    1    1    2    0    0 -0.19645840146E+02 -0.40756851887E+02 -0.84324990571E+02  0.12500000000E+03  0.80419002446E+02 0. -1.
</event>
<event>
 4    1  0.1699921E-001  0.1250000E+03  0.7546771E-02  0.1126479E+00
        -11   -1    0    0    0    0  0.00000000000E+00  0.00000000000E+00  0.12500000000E+03  0.12500000000E+03  0.00000000000E+00 0.  1.
         11   -1    0    0    0    0 -0.00000000000E+00 -0.00000000000E+00 -0.12500000000E+03  0.12500000000E+03  0.00000000000E+00 0. -1.
         24    1    1    2    0    0 -0.34526810434E+02 -0.93896334657E+01  0.88755384007E+02  0.12500000000E+03  0.80419002446E+02 0.  1.
        -24    1    1    2    0    0  0.34526810434E+02  0.93896334657E+01 -0.88755384007E+02  0.12500000000E+03  0.80419002446E+02 0. -1.
</event>
<event>
 4    1  0.1699921E-001  0.1250000E+03  0.7546771E-02  0.1126479E+00
        -11   -1    0    0    0    0  0.00000000000E+00  0.00000000000E+00  0.12500000000E+03  0.12500000000E+03  0.00000000000E+00 0.  1.
         11   -1    0    0    0    0 -0.00000000000E+00 -0.00000000000E+00 -0.12500000000E+03  0.12500000000E+03  0.00000000000E+00 0. -1.
         24    1    1    2    0    0  0.11465199856E+02  0.14203510040E+02  0.93939307749E+02  0.12500000000E+03  0.80419002446E+02 0.  1.
        -24    1    1    2    0    0 -0.11465199856E+02 -0.14203510040E+02 -0.93939307749E+02  0.12500000000E+03  0.80419002446E+02 0. -1.
</event>
<event>
 4    1  0.1699921E-001  0.1250000E+03  0.7546771E-02  0.1126479E+00
        -11   -1    0    0    0    0  0.00000000000E+00  0.00000000000E+00  0.12500000000E+03  0.12500000000E+03  0.00000000000E+00 0.  1.
         11   -1    0    0    0    0 -0.00000000000E+00 -0.00000000000E+00 -0.12500000000E+03  0.12500000000E+03  0.00000000000E+00 0. -1.
         24    1    1    2    0    0  0.18550401882E+02  0.34947147954E+01  0.93816062613E+02  0.12500000000E+03  0.80419002446E+02 0.  1.
        -24    1    1    2    0    0 -0.18550401882E+02 -0.34947147954E+01 -0.93816062613E+02  0.12500000000E+03  0.80419002446E+02 0.  0.
</event>
<event>
 4    1  0.1699921E-001  0.1250000E+03  0.7546771E-02  0.1126479E+00
        -11   -1    0    0    0    0  0.00000000000E+00  0.00000000000E+00  0.12500000000E+03  0.12500000000E+03  0.00000000000E+00 0.  1.
         11   -1    0    0    0    0 -0.00000000000E+00 -0.00000000000E+00 -0.12500000000E+03  0.12500000000E+03  0.00000000000E+00 0. -1.
         24    1    1    2    0    0  0.63905286613E+02 -0.92367254246E+00  0.71225313039E+02  0.12500000000E+03  0.80419002446E+02 0.  1.
        -24    1    1    2    0    0 -0.63905286613E+02  0.92367254246E+00 -0.71225313039E+02  0.12500000000E+03  0.80419002446E+02 0. -1.
</event>
<event>
 4    1  0.1699921E-001  0.1250000E+03  0.7546771E-02  0.1126479E+00
        -11   -1    0    0    0    0  0.00000000000E+00  0.00000000000E+00  0.12500000000E+03  0.12500000000E+03  0.00000000000E+00 0.  1.
         11   -1    0    0    0    0 -0.00000000000E+00 -0.00000000000E+00 -0.12500000000E+03  0.12500000000E+03  0.00000000000E+00 0. -1.
         24    1    1    2    0    0  0.11350178631E+02  0.25981579151E+02  0.91399754023E+02  0.12500000000E+03  0.80419002446E+02 0.  1.
        -24    1    1    2    0    0 -0.11350178631E+02 -0.25981579151E+02 -0.91399754023E+02  0.12500000000E+03  0.80419002446E+02 0. -1.
</event>
<event>
 4    1  0.1699921E-001  0.1250000E+03  0.7546771E-02  0.1126479E+00
        -11   -1    0    0    0    0  0.00000000000E+00  0.00000000000E+00  0.12500000000E+03  0.12500000000E+03  0.00000000000E+00 0.  1.
         11   -1    0    0    0    0 -0.00000000000E+00 -0.00000000000E+00 -0.12500000000E+03  0.12500000000E+03  0.00000000000E+00 0. -1.
         24    1    1    2    0    0 -0.32840591359E+02 -0.79551645390E+02  0.41842745136E+02  0.12500000000E+03  0.80419002446E+02 0.  1.
        -24    1    1    2    0    0  0.32840591359E+02  0.79551645390E+02 -0.41842745136E+02  0.12500000000E+03  0.80419002446E+02 0. -1.
</event>
<event>
 4    1  0.1699921E-001  0.1250000E+03  0.7546771E-02  0.1126479E+00
        -11   -1    0    0    0    0  0.00000000000E+00  0.00000000000E+00  0.12500000000E+03  0.12500000000E+03  0.00000000000E+00 0.  1.
         11   -1    0    0    0    0 -0.00000000000E+00 -0.00000000000E+00 -0.12500000000E+03  0.12500000000E+03  0.00000000000E+00 0. -1.
         24    1    1    2    0    0  0.18610179766E+01  0.67154977390E+02  0.68150786272E+02  0.12500000000E+03  0.80419002446E+02 0.  1.
        -24    1    1    2    0    0 -0.18610179766E+01 -0.67154977390E+02 -0.68150786272E+02  0.12500000000E+03  0.80419002446E+02 0. -1.
</event>
<event>
 4    1  0.1699921E-001  0.1250000E+03  0.7546771E-02  0.1126479E+00
        -11   -1    0    0    0    0  0.00000000000E+00  0.00000000000E+00  0.12500000000E+03  0.12500000000E+03  0.00000000000E+00 0.  1.
         11   -1    0    0    0    0 -0.00000000000E+00 -0.00000000000E+00 -0.12500000000E+03  0.12500000000E+03  0.00000000000E+00 0. -1.
         24    1    1    2    0    0  0.70999748352E+02 -0.16885994116E+02  0.61900589515E+02  0.12500000000E+03  0.80419002446E+02 0. -1.
        -24    1    1    2    0    0 -0.70999748352E+02  0.16885994116E+02 -0.61900589515E+02  0.12500000000E+03  0.80419002446E+02 0.  1.
</event>
<event>
 4    1  0.1699921E-001  0.1250000E+03  0.7546771E-02  0.1126479E+00
        -11   -1    0    0    0    0  0.00000000000E+00  0.00000000000E+00  0.12500000000E+03  0.12500000000E+03  0.00000000000E+00 0.  1.
         11   -1    0    0    0    0 -0.00000000000E+00 -0.00000000000E+00 -0.12500000000E+03  0.12500000000E+03  0.00000000000E+00 0. -1.
         24    1    1    2    0    0  0.22919673809E+02 -0.57558386505E+02  0.72934934983E+02  0.12500000000E+03  0.80419002446E+02 0.  1.
        -24    1    1    2    0    0 -0.22919673809E+02  0.57558386505E+02 -0.72934934983E+02  0.12500000000E+03  0.80419002446E+02 0. -1.
</event>
<event>
 4    1  0.1699921E-001  0.1250000E+03  0.7546771E-02  0.1126479E+00
        -11   -1    0    0    0    0  0.00000000000E+00  0.00000000000E+00  0.12500000000E+03  0.12500000000E+03  0.00000000000E+00 0.  1.
         11   -1    0    0    0    0 -0.00000000000E+00 -0.00000000000E+00 -0.12500000000E+03  0.12500000000E+03  0.00000000000E+00 0. -1.
         24    1    1    2    0    0 -0.54421095542E+02  0.76054165132E+02 -0.20295131724E+02  0.12500000000E+03  0.80419002446E+02 0. -1.
        -24    1    1    2    0    0  0.54421095542E+02 -0.76054165132E+02  0.20295131724E+02  0.12500000000E+03  0.80419002446E+02 0.  1.
</event>
<event>
 4    1  0.1699921E-001  0.1250000E+03  0.7546771E-02  0.1126479E+00
        -11   -1    0    0    0    0  0.00000000000E+00  0.00000000000E+00  0.12500000000E+03  0.12500000000E+03  0.00000000000E+00 0.  1.
         11   -1    0    0    0    0 -0.00000000000E+00 -0.00000000000E+00 -0.12500000000E+03  0.12500000000E+03  0.00000000000E+00 0. -1.
         24    1    1    2    0    0  0.54995903210E+02  0.43066608941E+02  0.65410258141E+02  0.12500000000E+03  0.80419002446E+02 0.  1.
        -24    1    1    2    0    0 -0.54995903210E+02 -0.43066608941E+02 -0.65410258141E+02  0.12500000000E+03  0.80419002446E+02 0. -1.
</event>
<event>
 4    1  0.1699921E-001  0.1250000E+03  0.7546771E-02  0.1126479E+00
        -11   -1    0    0    0    0  0.00000000000E+00  0.00000000000E+00  0.12500000000E+03  0.12500000000E+03  0.00000000000E+00 0.  1.
         11   -1    0    0    0    0 -0.00000000000E+00 -0.00000000000E+00 -0.12500000000E+03  0.12500000000E+03  0.00000000000E+00 0. -1.
         24    1    1    2    0    0  0.18555373099E+02  0.12251384722E+02  0.93077310593E+02  0.12500000000E+03  0.80419002446E+02 0.  1.
        -24    1    1    2    0    0 -0.18555373099E+02 -0.12251384722E+02 -0.93077310593E+02  0.12500000000E+03  0.80419002446E+02 0. -1.
</event>
<event>
 4    1  0.1699921E-001  0.1250000E+03  0.7546771E-02  0.1126479E+00
        -11   -1    0    0    0    0  0.00000000000E+00  0.00000000000E+00  0.12500000000E+03  0.12500000000E+03  0.00000000000E+00 0.  1.
         11   -1    0    0    0    0 -0.00000000000E+00 -0.00000000000E+00 -0.12500000000E+03  0.12500000000E+03  0.00000000000E+00 0. -1.
         24    1    1    2    0    0 -0.77191356213E+02 -0.76904368454E+01  0.56036914197E+02  0.12500000000E+03  0.80419002446E+02 0.  1.
        -24    1    1    2    0    0  0.77191356213E+02  0.76904368454E+01 -0.56036914197E+02  0.12500000000E+03  0.80419002446E+02 0. -1.
</event>
<event>
 4    1  0.1699921E-001  0.1250000E+03  0.7546771E-02  0.1126479E+00
        -11   -1    0    0    0    0  0.00000000000E+00  0.00000000000E+00  0.12500000000E+03  0.12500000000E+03  0.00000000000E+00 0.  1.
         11   -1    0    0    0    0 -0.00000000000E+00 -0.00000000000E+00 -0.12500000000E+03  0.12500000000E+03  0.00000000000E+00 0. -1.
         24    1    1    2    0    0  0.74622410718E+01 -0.16259626437E+02  0.94009167382E+02  0.12500000000E+03  0.80419002446E+02 0.  0.
        -24    1    1    2    0    0 -0.74622410718E+01  0.16259626437E+02 -0.94009167382E+02  0.12500000000E+03  0.80419002446E+02 0. -1.
</event>
<event>
 4    1  0.1699921E-001  0.1250000E+03  0.7546771E-02  0.1126479E+00
        -11   -1    0    0    0    0  0.00000000000E+00  0.00000000000E+00  0.12500000000E+03  0.12500000000E+03  0.00000000000E+00 0.  1.
         11   -1    0    0    0    0 -0.00000000000E+00 -0.00000000000E+00 -0.12500000000E+03  0.12500000000E+03  0.00000000000E+00 0. -1.
         24    1    1    2    0    0 -0.54319594723E+02  0.34131295587E+02  0.71008593398E+02  0.12500000000E+03  0.80419002446E+02 0.  1.
        -24    1    1    2    0    0  0.54319594723E+02 -0.34131295587E+02 -0.71008593398E+02  0.12500000000E+03  0.80419002446E+02 0. -1.
</event>
<event>
 4    1  0.1699921E-001  0.1250000E+03  0.7546771E-02  0.1126479E+00
        -11   -1    0    0    0    0  0.00000000000E+00  0.00000000000E+00  0.12500000000E+03  0.12500000000E+03  0.00000000000E+00 0.  1.
         11   -1    0    0    0    0 -0.00000000000E+00 -0.00000000000E+00 -0.12500000000E+03  0.12500000000E+03  0.00000000000E+00 0. -1.
         24    1    1    2    0    0 -0.42176608483E+02  0.26523924836E+02  0.81703115937E+02  0.12500000000E+03  0.80419002446E+02 0.  1.
        -24    1    1    2    0    0  0.42176608483E+02 -0.26523924836E+02 -0.81703115937E+02  0.12500000000E+03  0.80419002446E+02 0. -1.
</event>
<event>
 4    1  0.1699921E-001  0.1250000E+03  0.7546771E-02  0.1126479E+00
        -11   -1    0    0    0    0  0.00000000000E+00  0.00000000000E+00  0.12500000000E+03  0.12500000000E+03  0.00000000000E+00 0.  1.
         11   -1    0    0    0    0 -0.00000000000E+00 -0.00000000000E+00 -0.12500000000E+03  0.12500000000E+03  0.00000000000E+00 0. -1.
         24    1    1    2    0    0  0.24949528066E+02 -0.56360351590E+02  0.73203933388E+02  0.12500000000E+03  0.80419002446E+02 0.  1.
        -24    1    1    2    0    0 -0.24949528066E+02  0.56360351590E+02 -0.73203933388E+02  0.12500000000E+03  0.80419002446E+02 0. -1.
</event>
<event>
 4    1  0.1699921E-001  0.1250000E+03  0.7546771E-02  0.1126479E+00
        -11   -1    0    0    0    0  0.00000000000E+00  0.00000000000E+00  0.12500000000E+03  0.12500000000E+03  0.00000000000E+00 0.  1.
         11   -1    0    0    0    0 -0.00000000000E+00 -0.00000000000E+00 -0.12500000000E+03  0.12500000000E+03  0.00000000000E+00 0. -1.
         24    1    1    2    0    0  0.36247137681E+02  0.12396013090E+02  0.87694172640E+02  0.12500000000E+03  0.80419002446E+02 0.  1.
        -24    1    1    2    0    0 -0.36247137681E+02 -0.12396013090E+02 -0.87694172640E+02  0.12500000000E+03  0.80419002446E+02 0. -1.
</event>
<event>
 4    1  0.1699921E-001  0.1250000E+03  0.7546771E-02  0.1126479E+00
        -11   -1    0    0    0    0  0.00000000000E+00  0.00000000000E+00  0.12500000000E+03  0.12500000000E+03  0.00000000000E+00 0.  1.
         11   -1    0    0    0    0 -0.00000000000E+00 -0.00000000000E+00 -0.12500000000E+03  0.12500000000E+03  0.00000000000E+00 0. -1.
         24    1    1    2    0    0 -0.40390981362E+02 -0.43884460712E+02  0.74836533713E+02  0.12500000000E+03  0.80419002446E+02 0.  1.
        -24    1    1    2    0    0  0.40390981362E+02  0.43884460712E+02 -0.74836533713E+02  0.12500000000E+03  0.80419002446E+02 0. -1.
</event>
<event>
 4    1  0.1699921E-001  0.1250000E+03  0.7546771E-02  0.1126479E+00
        -11   -1    0    0    0    0  0.00000000000E+00  0.00000000000E+00  0.12500000000E+03  0.12500000000E+03  0.00000000000E+00 0.  1.
         11   -1    0    0    0    0 -0.00000000000E+00 -0.00000000000E+00 -0.12500000000E+03  0.12500000000E+03  0.00000000000E+00 0. -1.
         24    1    1    2    0    0  0.31788464895E+02 -0.23492354138E+02  0.87151516581E+02  0.12500000000E+03  0.80419002446E+02 0.  0.
        -24    1    1    2    0    0 -0.31788464895E+02  0.23492354138E+02 -0.87151516581E+02  0.12500000000E+03  0.80419002446E+02 0.  0.
</event>
<event>
 4    1  0.1699921E-001  0.1250000E+03  0.7546771E-02  0.1126479E+00
        -11   -1    0    0    0    0  0.00000000000E+00  0.00000000000E+00  0.12500000000E+03  0.12500000000E+03  0.00000000000E+00 0.  1.
         11   -1    0    0    0    0 -0.00000000000E+00 -0.00000000000E+00 -0.12500000000E+03  0.12500000000E+03  0.00000000000E+00 0. -1.
         24    1    1    2    0    0 -0.13094328888E+02 -0.36658330252E+01  0.94725309526E+02  0.12500000000E+03  0.80419002446E+02 0.  1.
        -24    1    1    2    0    0  0.13094328888E+02  0.36658330252E+01 -0.94725309526E+02  0.12500000000E+03  0.80419002446E+02 0.  0.
</event>
<event>
 4    1  0.1699921E-001  0.1250000E+03  0.7546771E-02  0.1126479E+00
        -11   -1    0    0    0    0  0.00000000000E+00  0.00000000000E+00  0.12500000000E+03  0.12500000000E+03  0.00000000000E+00 0.  1.
         11   -1    0    0    0    0 -0.00000000000E+00 -0.00000000000E+00 -0.12500000000E+03  0.12500000000E+03  0.00000000000E+00 0. -1.
         24    1    1    2    0    0 -0.79857560274E+02  0.22606675062E+02  0.47639189281E+02  0.12500000000E+03  0.80419002446E+02 0.  1.
        -24    1    1    2    0    0  0.79857560274E+02 -0.22606675062E+02 -0.47639189281E+02  0.12500000000E+03  0.80419002446E+02 0. -1.
</event>
<event>
 4    1  0.1699921E-001  0.1250000E+03  0.7546771E-02  0.1126479E+00
        -11   -1    0    0    0    0  0.00000000000E+00  0.00000000000E+00  0.12500000000E+03  0.12500000000E+03  0.00000000000E+00 0.  1.
         11   -1    0    0    0    0 -0.00000000000E+00 -0.00000000000E+00 -0.12500000000E+03  0.12500000000E+03  0.00000000000E+00 0. -1.
         24    1    1    2    0    0 -0.32994647671E+02  0.46945976539E+02  0.76584675735E+02  0.12500000000E+03  0.80419002446E+02 0.  1.
        -24    1    1    2    0    0  0.32994647671E+02 -0.46945976539E+02 -0.76584675735E+02  0.12500000000E+03  0.80419002446E+02 0. -1.
</event>
<event>
 4    1  0.1699921E-001  0.1250000E+03  0.7546771E-02  0.1126479E+00
        -11   -1    0    0    0    0  0.00000000000E+00  0.00000000000E+00  0.12500000000E+03  0.12500000000E+03  0.00000000000E+00 0.  1.
         11   -1    0    0    0    0 -0.00000000000E+00 -0.00000000000E+00 -0.12500000000E+03  0.12500000000E+03  0.00000000000E+00 0. -1.
         24    1    1    2    0    0  0.70545259613E+02 -0.20289810669E+01  0.64629974684E+02  0.12500000000E+03  0.80419002446E+02 0.  1.
        -24    1    1    2    0    0 -0.70545259613E+02  0.20289810669E+01 -0.64629974684E+02  0.12500000000E+03  0.80419002446E+02 0.  0.
</event>
<event>
 4    1  0.1699921E-001  0.1250000E+03  0.7546771E-02  0.1126479E+00
        -11   -1    0    0    0    0  0.00000000000E+00  0.00000000000E+00  0.12500000000E+03  0.12500000000E+03  0.00000000000E+00 0.  1.
         11   -1    0    0    0    0 -0.00000000000E+00 -0.00000000000E+00 -0.12500000000E+03  0.12500000000E+03  0.00000000000E+00 0. -1.
         24    1    1    2    0    0  0.59466378584E+02  0.42824318275E+02  0.61543575035E+02  0.12500000000E+03  0.80419002446E+02 0.  1.
        -24    1    1    2    0    0 -0.59466378584E+02 -0.42824318275E+02 -0.61543575035E+02  0.12500000000E+03  0.80419002446E+02 0. -1.
</event>
<event>
 4    1  0.1699921E-001  0.1250000E+03  0.7546771E-02  0.1126479E+00
        -11   -1    0    0    0    0  0.00000000000E+00  0.00000000000E+00  0.12500000000E+03  0.12500000000E+03  0.00000000000E+00 0.  1.
         11   -1    0    0    0    0 -0.00000000000E+00 -0.00000000000E+00 -0.12500000000E+03  0.12500000000E+03  0.00000000000E+00 0. -1.
         24    1    1    2    0    0  0.35462691346E+02 -0.41798151695E+01  0.88784631065E+02  0.12500000000E+03  0.80419002446E+02 0.  1.
        -24    1    1    2    0    0 -0.35462691346E+02  0.41798151695E+01 -0.88784631065E+02  0.12500000000E+03  0.80419002446E+02 0. -1.
</event>
<event>
 4    1  0.1699921E-001  0.1250000E+03  0.7546771E-02  0.1126479E+00
        -11   -1    0    0    0    0  0.00000000000E+00  0.00000000000E+00  0.12500000000E+03  0.12500000000E+03  0.00000000000E+00 0.  1.
         11   -1    0    0    0    0 -0.00000000000E+00 -0.00000000000E+00 -0.12500000000E+03  0.12500000000E+03  0.00000000000E+00 0. -1.
         24    1    1    2    0    0 -0.53711787437E+02  0.64788597775E+02  0.45555082420E+02  0.12500000000E+03  0.80419002446E+02 0.  1.
        -24    1    1    2    0    0  0.53711787437E+02 -0.64788597775E+02 -0.45555082420E+02  0.12500000000E+03  0.80419002446E+02 0. -1.
</event>
<event>
 4    1  0.1699921E-001  0.1250000E+03  0.7546771E-02  0.1126479E+00
        -11   -1    0    0    0    0  0.00000000000E+00  0.00000000000E+00  0.12500000000E+03  0.12500000000E+03  0.00000000000E+00 0.  1.
         11   -1    0    0    0    0 -0.00000000000E+00 -0.00000000000E+00 -0.12500000000E+03  0.12500000000E+03  0.00000000000E+00 0. -1.
         24    1    1    2    0    0  0.10461952138E+02  0.11626758336E+02  0.94409480952E+02  0.12500000000E+03  0.80419002446E+02 0.  1.
        -24    1    1    2    0    0 -0.10461952138E+02 -0.11626758336E+02 -0.94409480952E+02  0.12500000000E+03  0.80419002446E+02 0. -1.
</event>
<event>
 4    1  0.1699921E-001  0.1250000E+03  0.7546771E-02  0.1126479E+00
        -11   -1    0    0    0    0  0.00000000000E+00  0.00000000000E+00  0.12500000000E+03  0.12500000000E+03  0.00000000000E+00 0.  1.
         11   -1    0    0    0    0 -0.00000000000E+00 -0.00000000000E+00 -0.12500000000E+03  0.12500000000E+03  0.00000000000E+00 0. -1.
         24    1    1    2    0    0  0.57333720767E+01 -0.20272370247E+02  0.93348505584E+02  0.12500000000E+03  0.80419002446E+02 0.  1.
        -24    1    1    2    0    0 -0.57333720767E+01  0.20272370247E+02 -0.93348505584E+02  0.12500000000E+03  0.80419002446E+02 0.  0.
</event>
<event>
 4    1  0.1699921E-001  0.1250000E+03  0.7546771E-02  0.1126479E+00
        -11   -1    0    0    0    0  0.00000000000E+00  0.00000000000E+00  0.12500000000E+03  0.12500000000E+03  0.00000000000E+00 0.  1.
         11   -1    0    0    0    0 -0.00000000000E+00 -0.00000000000E+00 -0.12500000000E+03  0.12500000000E+03  0.00000000000E+00 0. -1.
         24    1    1    2    0    0  0.12011823659E+02  0.75362127743E+02  0.57741231715E+02  0.12500000000E+03  0.80419002446E+02 0.  1.
        -24    1    1    2    0    0 -0.12011823659E+02 -0.75362127743E+02 -0.57741231715E+02  0.12500000000E+03  0.80419002446E+02 0. -1.
</event>
<event>
 4    1  0.1699921E-001  0.1250000E+03  0.7546771E-02  0.1126479E+00
        -11   -1    0    0    0    0  0.00000000000E+00  0.00000000000E+00  0.12500000000E+03  0.12500000000E+03  0.00000000000E+00 0.  1.
         11   -1    0    0    0    0 -0.00000000000E+00 -0.00000000000E+00 -0.12500000000E+03  0.12500000000E+03  0.00000000000E+00 0. -1.
         24    1    1    2    0    0 -0.40946844843E+02 -0.48231250797E+02  0.71797537490E+02  0.12500000000E+03  0.80419002446E+02 0.  1.
        -24    1    1    2    0    0  0.40946844843E+02  0.48231250797E+02 -0.71797537490E+02  0.12500000000E+03  0.80419002446E+02 0. -1.
</event>
<event>
 4    1  0.1699921E-001  0.1250000E+03  0.7546771E-02  0.1126479E+00
        -11   -1    0    0    0    0  0.00000000000E+00  0.00000000000E+00  0.12500000000E+03  0.12500000000E+03  0.00000000000E+00 0.  1.
         11   -1    0    0    0    0 -0.00000000000E+00 -0.00000000000E+00 -0.12500000000E+03  0.12500000000E+03  0.00000000000E+00 0. -1.
         24    1    1    2    0    0  0.39719867568E+02 -0.20098518457E+02  0.84712252490E+02  0.12500000000E+03  0.80419002446E+02 0.  1.
        -24    1    1    2    0    0 -0.39719867568E+02  0.20098518457E+02 -0.84712252490E+02  0.12500000000E+03  0.80419002446E+02 0. -1.
</event>
<event>
 4    1  0.1699921E-001  0.1250000E+03  0.7546771E-02  0.1126479E+00
        -11   -1    0    0    0    0  0.00000000000E+00  0.00000000000E+00  0.12500000000E+03  0.12500000000E+03  0.00000000000E+00 0.  1.
         11   -1    0    0    0    0 -0.00000000000E+00 -0.00000000000E+00 -0.12500000000E+03  0.12500000000E+03  0.00000000000E+00 0. -1.
         24    1    1    2    0    0  0.54465620438E+02  0.92833683336E+01  0.78135134916E+02  0.12500000000E+03  0.80419002446E+02 0.  1.
        -24    1    1    2    0    0 -0.54465620438E+02 -0.92833683336E+01 -0.78135134916E+02  0.12500000000E+03  0.80419002446E+02 0. -1.
</event>
<event>
 4    1  0.1699921E-001  0.1250000E+03  0.7546771E-02  0.1126479E+00
        -11   -1    0    0    0    0  0.00000000000E+00  0.00000000000E+00  0.12500000000E+03  0.12500000000E+03  0.00000000000E+00 0.  1.
         11   -1    0    0    0    0 -0.00000000000E+00 -0.00000000000E+00 -0.12500000000E+03  0.12500000000E+03  0.00000000000E+00 0. -1.
         24    1    1    2    0    0  0.24451547182E+02  0.16558375925E+02  0.91025963729E+02  0.12500000000E+03  0.80419002446E+02 0.  1.
        -24    1    1    2    0    0 -0.24451547182E+02 -0.16558375925E+02 -0.91025963729E+02  0.12500000000E+03  0.80419002446E+02 0. -1.
</event>
<event>
 4    1  0.1699921E-001  0.1250000E+03  0.7546771E-02  0.1126479E+00
        -11   -1    0    0    0    0  0.00000000000E+00  0.00000000000E+00  0.12500000000E+03  0.12500000000E+03  0.00000000000E+00 0.  1.
         11   -1    0    0    0    0 -0.00000000000E+00 -0.00000000000E+00 -0.12500000000E+03  0.12500000000E+03  0.00000000000E+00 0. -1.
         24    1    1    2    0    0  0.30413980535E+02 -0.14084386304E+02  0.89634836398E+02  0.12500000000E+03  0.80419002446E+02 0.  1.
        -24    1    1    2    0    0 -0.30413980535E+02  0.14084386304E+02 -0.89634836398E+02  0.12500000000E+03  0.80419002446E+02 0. -1.
</event>
<event>
 4    1  0.1699921E-001  0.1250000E+03  0.7546771E-02  0.1126479E+00
        -11   -1    0    0    0    0  0.00000000000E+00  0.00000000000E+00  0.12500000000E+03  0.12500000000E+03  0.00000000000E+00 0.  1.
         11   -1    0    0    0    0 -0.00000000000E+00 -0.00000000000E+00 -0.12500000000E+03  0.12500000000E+03  0.00000000000E+00 0. -1.
         24    1    1    2    0    0 -0.11395261037E+02 -0.11721477566E+02  0.94289654974E+02  0.12500000000E+03  0.80419002446E+02 0.  1.
        -24    1    1    2    0    0  0.11395261037E+02  0.11721477566E+02 -0.94289654974E+02  0.12500000000E+03  0.80419002446E+02 0.  0.
</event>
<event>
 4    1  0.1699921E-001  0.1250000E+03  0.7546771E-02  0.1126479E+00
        -11   -1    0    0    0    0  0.00000000000E+00  0.00000000000E+00  0.12500000000E+03  0.12500000000E+03  0.00000000000E+00 0.  1.
         11   -1    0    0    0    0 -0.00000000000E+00 -0.00000000000E+00 -0.12500000000E+03  0.12500000000E+03  0.00000000000E+00 0. -1.
         24    1    1    2    0    0  0.58821708419E+02 -0.30776775480E+01  0.75420942484E+02  0.12500000000E+03  0.80419002446E+02 0.  1.
        -24    1    1    2    0    0 -0.58821708419E+02  0.30776775480E+01 -0.75420942484E+02  0.12500000000E+03  0.80419002446E+02 0. -1.
</event>
<event>
 4    1  0.1699921E-001  0.1250000E+03  0.7546771E-02  0.1126479E+00
        -11   -1    0    0    0    0  0.00000000000E+00  0.00000000000E+00  0.12500000000E+03  0.12500000000E+03  0.00000000000E+00 0.  1.
         11   -1    0    0    0    0 -0.00000000000E+00 -0.00000000000E+00 -0.12500000000E+03  0.12500000000E+03  0.00000000000E+00 0. -1.
         24    1    1    2    0    0  0.17605143457E+02 -0.65003138156E+01  0.93838099351E+02  0.12500000000E+03  0.80419002446E+02 0.  0.
        -24    1    1    2    0    0 -0.17605143457E+02  0.65003138156E+01 -0.93838099351E+02  0.12500000000E+03  0.80419002446E+02 0. -1.
</event>
<event>
 4    1  0.1699921E-001  0.1250000E+03  0.7546771E-02  0.1126479E+00
        -11   -1    0    0    0    0  0.00000000000E+00  0.00000000000E+00  0.12500000000E+03  0.12500000000E+03  0.00000000000E+00 0.  1.
         11   -1    0    0    0    0 -0.00000000000E+00 -0.00000000000E+00 -0.12500000000E+03  0.12500000000E+03  0.00000000000E+00 0. -1.
         24    1    1    2    0    0 -0.16525142184E+02  0.28060176843E+02  0.89985166539E+02  0.12500000000E+03  0.80419002446E+02 0.  1.
        -24    1    1    2    0    0  0.16525142184E+02 -0.28060176843E+02 -0.89985166539E+02  0.12500000000E+03  0.80419002446E+02 0. -1.
</event>
<event>
 4    1  0.1699921E-001  0.1250000E+03  0.7546771E-02  0.1126479E+00
        -11   -1    0    0    0    0  0.00000000000E+00  0.00000000000E+00  0.12500000000E+03  0.12500000000E+03  0.00000000000E+00 0.  1.
         11   -1    0    0    0    0 -0.00000000000E+00 -0.00000000000E+00 -0.12500000000E+03  0.12500000000E+03  0.00000000000E+00 0. -1.
         24    1    1    2    0    0  0.43392493530E+02  0.77712269718E+01  0.84938116192E+02  0.12500000000E+03  0.80419002446E+02 0.  1.
        -24    1    1    2    0    0 -0.43392493530E+02 -0.77712269718E+01 -0.84938116192E+02  0.12500000000E+03  0.80419002446E+02 0. -1.
</event>
<event>
 4    1  0.1699921E-001  0.1250000E+03  0.7546771E-02  0.1126479E+00
        -11   -1    0    0    0    0  0.00000000000E+00  0.00000000000E+00  0.12500000000E+03  0.12500000000E+03  0.00000000000E+00 0.  1.
         11   -1    0    0    0    0 -0.00000000000E+00 -0.00000000000E+00 -0.12500000000E+03  0.12500000000E+03  0.00000000000E+00 0. -1.
         24    1    1    2    0    0 -0.42269907055E+01 -0.66816157612E+02  0.68377757182E+02  0.12500000000E+03  0.80419002446E+02 0.  1.
        -24    1    1    2    0    0  0.42269907055E+01  0.66816157612E+02 -0.68377757182E+02  0.12500000000E+03  0.80419002446E+02 0. -1.
</event>
<event>
 4    1  0.1699921E-001  0.1250000E+03  0.7546771E-02  0.1126479E+00
        -11   -1    0    0    0    0  0.00000000000E+00  0.00000000000E+00  0.12500000000E+03  0.12500000000E+03  0.00000000000E+00 0.  1.
         11   -1    0    0    0    0 -0.00000000000E+00 -0.00000000000E+00 -0.12500000000E+03  0.12500000000E+03  0.00000000000E+00 0. -1.
         24    1    1    2    0    0 -0.10415046709E+02  0.65103903797E+01  0.94904824244E+02  0.12500000000E+03  0.80419002446E+02 0.  0.
        -24    1    1    2    0    0  0.10415046709E+02 -0.65103903797E+01 -0.94904824244E+02  0.12500000000E+03  0.80419002446E+02 0. -1.
</event>
<event>
 4    1  0.1699921E-001  0.1250000E+03  0.7546771E-02  0.1126479E+00
        -11   -1    0    0    0    0  0.00000000000E+00  0.00000000000E+00  0.12500000000E+03  0.12500000000E+03  0.00000000000E+00 0.  1.
         11   -1    0    0    0    0 -0.00000000000E+00 -0.00000000000E+00 -0.12500000000E+03  0.12500000000E+03  0.00000000000E+00 0. -1.
         24    1    1    2    0    0 -0.15337922450E+02  0.33234486373E+02  0.88419461071E+02  0.12500000000E+03  0.80419002446E+02 0.  1.
        -24    1    1    2    0    0  0.15337922450E+02 -0.33234486373E+02 -0.88419461071E+02  0.12500000000E+03  0.80419002446E+02 0. -1.
</event>
<event>
 4    1  0.1699921E-001  0.1250000E+03  0.7546771E-02  0.1126479E+00
        -11   -1    0    0    0    0  0.00000000000E+00  0.00000000000E+00  0.12500000000E+03  0.12500000000E+03  0.00000000000E+00 0.  1.
         11   -1    0    0    0    0 -0.00000000000E+00 -0.00000000000E+00 -0.12500000000E+03  0.12500000000E+03  0.00000000000E+00 0. -1.
         24    1    1    2    0    0 -0.10035034076E+02 -0.61935874237E+02  0.72256692557E+02  0.12500000000E+03  0.80419002446E+02 0.  1.
        -24    1    1    2    0    0  0.10035034076E+02  0.61935874237E+02 -0.72256692557E+02  0.12500000000E+03  0.80419002446E+02 0. -1.
</event>
<event>
 4    1  0.1699921E-001  0.1250000E+03  0.7546771E-02  0.1126479E+00
        -11   -1    0    0    0    0  0.00000000000E+00  0.00000000000E+00  0.12500000000E+03  0.12500000000E+03  0.00000000000E+00 0.  1.
         11   -1    0    0    0    0 -0.00000000000E+00 -0.00000000000E+00 -0.12500000000E+03  0.12500000000E+03  0.00000000000E+00 0. -1.
         24    1    1    2    0    0 -0.29970729164E+02 -0.38572515269E+02  0.82290342719E+02  0.12500000000E+03  0.80419002446E+02 0.  1.
        -24    1    1    2    0    0  0.29970729164E+02  0.38572515269E+02 -0.82290342719E+02  0.12500000000E+03  0.80419002446E+02 0. -1.
</event>
<event>
 4    1  0.1699921E-001  0.1250000E+03  0.7546771E-02  0.1126479E+00
        -11   -1    0    0    0    0  0.00000000000E+00  0.00000000000E+00  0.12500000000E+03  0.12500000000E+03  0.00000000000E+00 0.  1.
         11   -1    0    0    0    0 -0.00000000000E+00 -0.00000000000E+00 -0.12500000000E+03  0.12500000000E+03  0.00000000000E+00 0. -1.
         24    1    1    2    0    0 -0.62347671605E+02 -0.47761748398E+02 -0.54675106594E+02  0.12500000000E+03  0.80419002446E+02 0. -1.
        -24    1    1    2    0    0  0.62347671605E+02  0.47761748398E+02  0.54675106594E+02  0.12500000000E+03  0.80419002446E+02 0.  1.
</event>
<event>
 4    1  0.1699921E-001  0.1250000E+03  0.7546771E-02  0.1126479E+00
        -11   -1    0    0    0    0  0.00000000000E+00  0.00000000000E+00  0.12500000000E+03  0.12500000000E+03  0.00000000000E+00 0.  1.
         11   -1    0    0    0    0 -0.00000000000E+00 -0.00000000000E+00 -0.12500000000E+03  0.12500000000E+03  0.00000000000E+00 0. -1.
         24    1    1    2    0    0 -0.32620416128E+02  0.88443059151E+02  0.16477796738E+02  0.12500000000E+03  0.80419002446E+02 0.  1.
        -24    1    1    2    0    0  0.32620416128E+02 -0.88443059151E+02 -0.16477796738E+02  0.12500000000E+03  0.80419002446E+02 0. -1.
</event>
<event>
 4    1  0.1699921E-001  0.1250000E+03  0.7546771E-02  0.1126479E+00
        -11   -1    0    0    0    0  0.00000000000E+00  0.00000000000E+00  0.12500000000E+03  0.12500000000E+03  0.00000000000E+00 0.  1.
         11   -1    0    0    0    0 -0.00000000000E+00 -0.00000000000E+00 -0.12500000000E+03  0.12500000000E+03  0.00000000000E+00 0. -1.
         24    1    1    2    0    0 -0.16746810469E+02  0.92434977817E+02 -0.18251116697E+02  0.12500000000E+03  0.80419002446E+02 0. -1.
        -24    1    1    2    0    0  0.16746810469E+02 -0.92434977817E+02  0.18251116697E+02  0.12500000000E+03  0.80419002446E+02 0.  1.
</event>
<event>
 4    1  0.1699921E-001  0.1250000E+03  0.7546771E-02  0.1126479E+00
        -11   -1    0    0    0    0  0.00000000000E+00  0.00000000000E+00  0.12500000000E+03  0.12500000000E+03  0.00000000000E+00 0.  1.
         11   -1    0    0    0    0 -0.00000000000E+00 -0.00000000000E+00 -0.12500000000E+03  0.12500000000E+03  0.00000000000E+00 0. -1.
         24    1    1    2    0    0  0.35209964823E+02 -0.85823903843E+02  0.23501062782E+02  0.12500000000E+03  0.80419002446E+02 0.  1.
        -24    1    1    2    0    0 -0.35209964823E+02  0.85823903843E+02 -0.23501062782E+02  0.12500000000E+03  0.80419002446E+02 0. -1.
</event>
<event>
 4    1  0.1699921E-001  0.1250000E+03  0.7546771E-02  0.1126479E+00
        -11   -1    0    0    0    0  0.00000000000E+00  0.00000000000E+00  0.12500000000E+03  0.12500000000E+03  0.00000000000E+00 0.  1.
         11   -1    0    0    0    0 -0.00000000000E+00 -0.00000000000E+00 -0.12500000000E+03  0.12500000000E+03  0.00000000000E+00 0. -1.
         24    1    1    2    0    0  0.12098107785E+02  0.71930241582E+02  0.61947237062E+02  0.12500000000E+03  0.80419002446E+02 0.  1.
        -24    1    1    2    0    0 -0.12098107785E+02 -0.71930241582E+02 -0.61947237062E+02  0.12500000000E+03  0.80419002446E+02 0. -1.
</event>
<event>
 4    1  0.1699921E-001  0.1250000E+03  0.7546771E-02  0.1126479E+00
        -11   -1    0    0    0    0  0.00000000000E+00  0.00000000000E+00  0.12500000000E+03  0.12500000000E+03  0.00000000000E+00 0.  1.
         11   -1    0    0    0    0 -0.00000000000E+00 -0.00000000000E+00 -0.12500000000E+03  0.12500000000E+03  0.00000000000E+00 0. -1.
         24    1    1    2    0    0 -0.10261814345E+02  0.42977230465E+02  0.84884844781E+02  0.12500000000E+03  0.80419002446E+02 0.  1.
        -24    1    1    2    0    0  0.10261814345E+02 -0.42977230465E+02 -0.84884844781E+02  0.12500000000E+03  0.80419002446E+02 0. -1.
</event>
<event>
 4    1  0.1699921E-001  0.1250000E+03  0.7546771E-02  0.1126479E+00
        -11   -1    0    0    0    0  0.00000000000E+00  0.00000000000E+00  0.12500000000E+03  0.12500000000E+03  0.00000000000E+00 0.  1.
         11   -1    0    0    0    0 -0.00000000000E+00 -0.00000000000E+00 -0.12500000000E+03  0.12500000000E+03  0.00000000000E+00 0. -1.
         24    1    1    2    0    0  0.43513175345E+02 -0.69551919170E+02  0.49263761091E+02  0.12500000000E+03  0.80419002446E+02 0.  1.
        -24    1    1    2    0    0 -0.43513175345E+02  0.69551919170E+02 -0.49263761091E+02  0.12500000000E+03  0.80419002446E+02 0. -1.
</event>
<event>
 4    1  0.1699921E-001  0.1250000E+03  0.7546771E-02  0.1126479E+00
        -11   -1    0    0    0    0  0.00000000000E+00  0.00000000000E+00  0.12500000000E+03  0.12500000000E+03  0.00000000000E+00 0.  1.
         11   -1    0    0    0    0 -0.00000000000E+00 -0.00000000000E+00 -0.12500000000E+03  0.12500000000E+03  0.00000000000E+00 0. -1.
         24    1    1    2    0    0  0.73001717271E+02  0.61501564035E+02  0.67890310234E+01  0.12500000000E+03  0.80419002446E+02 0.  1.
        -24    1    1    2    0    0 -0.73001717271E+02 -0.61501564035E+02 -0.67890310234E+01  0.12500000000E+03  0.80419002446E+02 0. -1.
</event>
<event>
 4    1  0.1699921E-001  0.1250000E+03  0.7546771E-02  0.1126479E+00
        -11   -1    0    0    0    0  0.00000000000E+00  0.00000000000E+00  0.12500000000E+03  0.12500000000E+03  0.00000000000E+00 0.  1.
         11   -1    0    0    0    0 -0.00000000000E+00 -0.00000000000E+00 -0.12500000000E+03  0.12500000000E+03  0.00000000000E+00 0. -1.
         24    1    1    2    0    0 -0.64700573785E+02 -0.53171056647E+01  0.70308948114E+02  0.12500000000E+03  0.80419002446E+02 0.  1.
        -24    1    1    2    0    0  0.64700573785E+02  0.53171056647E+01 -0.70308948114E+02  0.12500000000E+03  0.80419002446E+02 0. -1.
</event>
<event>
 4    1  0.1699921E-001  0.1250000E+03  0.7546771E-02  0.1126479E+00
        -11   -1    0    0    0    0  0.00000000000E+00  0.00000000000E+00  0.12500000000E+03  0.12500000000E+03  0.00000000000E+00 0.  1.
         11   -1    0    0    0    0 -0.00000000000E+00 -0.00000000000E+00 -0.12500000000E+03  0.12500000000E+03  0.00000000000E+00 0. -1.
         24    1    1    2    0    0 -0.65425631098E+02  0.26211021655E+02  0.64732164994E+02  0.12500000000E+03  0.80419002446E+02 0.  1.
        -24    1    1    2    0    0  0.65425631098E+02 -0.26211021655E+02 -0.64732164994E+02  0.12500000000E+03  0.80419002446E+02 0. -1.
</event>
<event>
 4    1  0.1699921E-001  0.1250000E+03  0.7546771E-02  0.1126479E+00
        -11   -1    0    0    0    0  0.00000000000E+00  0.00000000000E+00  0.12500000000E+03  0.12500000000E+03  0.00000000000E+00 0.  1.
         11   -1    0    0    0    0 -0.00000000000E+00 -0.00000000000E+00 -0.12500000000E+03  0.12500000000E+03  0.00000000000E+00 0. -1.
         24    1    1    2    0    0 -0.64601451903E+02 -0.46961779987E+02  0.52716483932E+02  0.12500000000E+03  0.80419002446E+02 0.  1.
        -24    1    1    2    0    0  0.64601451903E+02  0.46961779987E+02 -0.52716483932E+02  0.12500000000E+03  0.80419002446E+02 0. -1.
</event>
<event>
 4    1  0.1699921E-001  0.1250000E+03  0.7546771E-02  0.1126479E+00
        -11   -1    0    0    0    0  0.00000000000E+00  0.00000000000E+00  0.12500000000E+03  0.12500000000E+03  0.00000000000E+00 0.  1.
         11   -1    0    0    0    0 -0.00000000000E+00 -0.00000000000E+00 -0.12500000000E+03  0.12500000000E+03  0.00000000000E+00 0. -1.
         24    1    1    2    0    0 -0.82397058075E+02 -0.11028787868E+02  0.47401209947E+02  0.12500000000E+03  0.80419002446E+02 0. -1.
        -24    1    1    2    0    0  0.82397058075E+02  0.11028787868E+02 -0.47401209947E+02  0.12500000000E+03  0.80419002446E+02 0.  0.
</event>
<event>
 4    1  0.1699921E-001  0.1250000E+03  0.7546771E-02  0.1126479E+00
        -11   -1    0    0    0    0  0.00000000000E+00  0.00000000000E+00  0.12500000000E+03  0.12500000000E+03  0.00000000000E+00 0.  1.
         11   -1    0    0    0    0 -0.00000000000E+00 -0.00000000000E+00 -0.12500000000E+03  0.12500000000E+03  0.00000000000E+00 0. -1.
         24    1    1    2    0    0 -0.50283691952E+02  0.31056142265E+02  0.75265200438E+02  0.12500000000E+03  0.80419002446E+02 0.  1.
        -24    1    1    2    0    0  0.50283691952E+02 -0.31056142265E+02 -0.75265200438E+02  0.12500000000E+03  0.80419002446E+02 0. -1.
</event>
<event>
 4    1  0.1699921E-001  0.1250000E+03  0.7546771E-02  0.1126479E+00
        -11   -1    0    0    0    0  0.00000000000E+00  0.00000000000E+00  0.12500000000E+03  0.12500000000E+03  0.00000000000E+00 0.  1.
         11   -1    0    0    0    0 -0.00000000000E+00 -0.00000000000E+00 -0.12500000000E+03  0.12500000000E+03  0.00000000000E+00 0. -1.
         24    1    1    2    0    0  0.55837508144E+02  0.16385328891E+02  0.75970242378E+02  0.12500000000E+03  0.80419002446E+02 0.  1.
        -24    1    1    2    0    0 -0.55837508144E+02 -0.16385328891E+02 -0.75970242378E+02  0.12500000000E+03  0.80419002446E+02 0. -1.
</event>
<event>
 4    1  0.1699921E-001  0.1250000E+03  0.7546771E-02  0.1126479E+00
        -11   -1    0    0    0    0  0.00000000000E+00  0.00000000000E+00  0.12500000000E+03  0.12500000000E+03  0.00000000000E+00 0.  1.
         11   -1    0    0    0    0 -0.00000000000E+00 -0.00000000000E+00 -0.12500000000E+03  0.12500000000E+03  0.00000000000E+00 0. -1.
         24    1    1    2    0    0  0.14317675263E+02  0.24717215730E+02  0.91333714844E+02  0.12500000000E+03  0.80419002446E+02 0.  1.
        -24    1    1    2    0    0 -0.14317675263E+02 -0.24717215730E+02 -0.91333714844E+02  0.12500000000E+03  0.80419002446E+02 0. -1.
</event>
<event>
 4    1  0.1699921E-001  0.1250000E+03  0.7546771E-02  0.1126479E+00
        -11   -1    0    0    0    0  0.00000000000E+00  0.00000000000E+00  0.12500000000E+03  0.12500000000E+03  0.00000000000E+00 0.  1.
         11   -1    0    0    0    0 -0.00000000000E+00 -0.00000000000E+00 -0.12500000000E+03  0.12500000000E+03  0.00000000000E+00 0. -1.
         24    1    1    2    0    0 -0.45063225123E+02  0.49233151826E+02  0.68579782359E+02  0.12500000000E+03  0.80419002446E+02 0.  1.
        -24    1    1    2    0    0  0.45063225123E+02 -0.49233151826E+02 -0.68579782359E+02  0.12500000000E+03  0.80419002446E+02 0. -1.
</event>
<event>
 4    1  0.1699921E-001  0.1250000E+03  0.7546771E-02  0.1126479E+00
        -11   -1    0    0    0    0  0.00000000000E+00  0.00000000000E+00  0.12500000000E+03  0.12500000000E+03  0.00000000000E+00 0.  1.
         11   -1    0    0    0    0 -0.00000000000E+00 -0.00000000000E+00 -0.12500000000E+03  0.12500000000E+03  0.00000000000E+00 0. -1.
         24    1    1    2    0    0  0.33416994943E+01  0.84149523384E+02  0.45447495029E+02  0.12500000000E+03  0.80419002446E+02 0.  1.
        -24    1    1    2    0    0 -0.33416994943E+01 -0.84149523384E+02 -0.45447495029E+02  0.12500000000E+03  0.80419002446E+02 0. -1.
</event>
<event>
 4    1  0.1699921E-001  0.1250000E+03  0.7546771E-02  0.1126479E+00
        -11   -1    0    0    0    0  0.00000000000E+00  0.00000000000E+00  0.12500000000E+03  0.12500000000E+03  0.00000000000E+00 0.  1.
         11   -1    0    0    0    0 -0.00000000000E+00 -0.00000000000E+00 -0.12500000000E+03  0.12500000000E+03  0.00000000000E+00 0. -1.
         24    1    1    2    0    0  0.68776965506E+02 -0.61116850249E+02  0.26310524075E+02  0.12500000000E+03  0.80419002446E+02 0.  1.
        -24    1    1    2    0    0 -0.68776965506E+02  0.61116850249E+02 -0.26310524075E+02  0.12500000000E+03  0.80419002446E+02 0. -1.
</event>
<event>
 4    1  0.1699921E-001  0.1250000E+03  0.7546771E-02  0.1126479E+00
        -11   -1    0    0    0    0  0.00000000000E+00  0.00000000000E+00  0.12500000000E+03  0.12500000000E+03  0.00000000000E+00 0.  1.
         11   -1    0    0    0    0 -0.00000000000E+00 -0.00000000000E+00 -0.12500000000E+03  0.12500000000E+03  0.00000000000E+00 0. -1.
         24    1    1    2    0    0  0.30488695271E+01  0.61840720708E+02  0.72967209776E+02  0.12500000000E+03  0.80419002446E+02 0.  1.
        -24    1    1    2    0    0 -0.30488695271E+01 -0.61840720708E+02 -0.72967209776E+02  0.12500000000E+03  0.80419002446E+02 0. -1.
</event>
<event>
 4    1  0.1699921E-001  0.1250000E+03  0.7546771E-02  0.1126479E+00
        -11   -1    0    0    0    0  0.00000000000E+00  0.00000000000E+00  0.12500000000E+03  0.12500000000E+03  0.00000000000E+00 0.  1.
         11   -1    0    0    0    0 -0.00000000000E+00 -0.00000000000E+00 -0.12500000000E+03  0.12500000000E+03  0.00000000000E+00 0. -1.
         24    1    1    2    0    0  0.31070166111E+02  0.41290603477E+02  0.80545110888E+02  0.12500000000E+03  0.80419002446E+02 0.  1.
        -24    1    1    2    0    0 -0.31070166111E+02 -0.41290603477E+02 -0.80545110888E+02  0.12500000000E+03  0.80419002446E+02 0. -1.
</event>
<event>
 4    1  0.1699921E-001  0.1250000E+03  0.7546771E-02  0.1126479E+00
        -11   -1    0    0    0    0  0.00000000000E+00  0.00000000000E+00  0.12500000000E+03  0.12500000000E+03  0.00000000000E+00 0.  1.
         11   -1    0    0    0    0 -0.00000000000E+00 -0.00000000000E+00 -0.12500000000E+03  0.12500000000E+03  0.00000000000E+00 0. -1.
         24    1    1    2    0    0  0.12642446437E+02  0.79230585034E+01  0.94526069090E+02  0.12500000000E+03  0.80419002446E+02 0.  1.
        -24    1    1    2    0    0 -0.12642446437E+02 -0.79230585034E+01 -0.94526069090E+02  0.12500000000E+03  0.80419002446E+02 0.  0.
</event>
<event>
 4    1  0.1699921E-001  0.1250000E+03  0.7546771E-02  0.1126479E+00
        -11   -1    0    0    0    0  0.00000000000E+00  0.00000000000E+00  0.12500000000E+03  0.12500000000E+03  0.00000000000E+00 0.  1.
         11   -1    0    0    0    0 -0.00000000000E+00 -0.00000000000E+00 -0.12500000000E+03  0.12500000000E+03  0.00000000000E+00 0. -1.
         24    1    1    2    0    0 -0.12155553735E+02 -0.74425095159E+02  0.58914614228E+02  0.12500000000E+03  0.80419002446E+02 0.  1.
        -24    1    1    2    0    0  0.12155553735E+02  0.74425095159E+02 -0.58914614228E+02  0.12500000000E+03  0.80419002446E+02 0. -1.
</event>
<event>
 4    1  0.1699921E-001  0.1250000E+03  0.7546771E-02  0.1126479E+00
        -11   -1    0    0    0    0  0.00000000000E+00  0.00000000000E+00  0.12500000000E+03  0.12500000000E+03  0.00000000000E+00 0.  1.
         11   -1    0    0    0    0 -0.00000000000E+00 -0.00000000000E+00 -0.12500000000E+03  0.12500000000E+03  0.00000000000E+00 0. -1.
         24    1    1    2    0    0  0.85033493629E+01 -0.24692954039E+02  0.92063755713E+02  0.12500000000E+03  0.80419002446E+02 0.  0.
        -24    1    1    2    0    0 -0.85033493629E+01  0.24692954039E+02 -0.92063755713E+02  0.12500000000E+03  0.80419002446E+02 0.  0.
</event>
<event>
 4    1  0.1699921E-001  0.1250000E+03  0.7546771E-02  0.1126479E+00
        -11   -1    0    0    0    0  0.00000000000E+00  0.00000000000E+00  0.12500000000E+03  0.12500000000E+03  0.00000000000E+00 0.  1.
         11   -1    0    0    0    0 -0.00000000000E+00 -0.00000000000E+00 -0.12500000000E+03  0.12500000000E+03  0.00000000000E+00 0. -1.
         24    1    1    2    0    0  0.44830508082E+02  0.23200444862E+02  0.81300362539E+02  0.12500000000E+03  0.80419002446E+02 0.  1.
        -24    1    1    2    0    0 -0.44830508082E+02 -0.23200444862E+02 -0.81300362539E+02  0.12500000000E+03  0.80419002446E+02 0. -1.
</event>
<event>
 4    1  0.1699921E-001  0.1250000E+03  0.7546771E-02  0.1126479E+00
        -11   -1    0    0    0    0  0.00000000000E+00  0.00000000000E+00  0.12500000000E+03  0.12500000000E+03  0.00000000000E+00 0.  1.
         11   -1    0    0    0    0 -0.00000000000E+00 -0.00000000000E+00 -0.12500000000E+03  0.12500000000E+03  0.00000000000E+00 0. -1.
         24    1    1    2    0    0  0.41717028265E+02  0.12293917118E+02  0.85242789726E+02  0.12500000000E+03  0.80419002446E+02 0.  1.
        -24    1    1    2    0    0 -0.41717028265E+02 -0.12293917118E+02 -0.85242789726E+02  0.12500000000E+03  0.80419002446E+02 0. -1.
</event>
<event>
 4    1  0.1699921E-001  0.1250000E+03  0.7546771E-02  0.1126479E+00
        -11   -1    0    0    0    0  0.00000000000E+00  0.00000000000E+00  0.12500000000E+03  0.12500000000E+03  0.00000000000E+00 0.  1.
         11   -1    0    0    0    0 -0.00000000000E+00 -0.00000000000E+00 -0.12500000000E+03  0.12500000000E+03  0.00000000000E+00 0. -1.
         24    1    1    2    0    0 -0.81449569701E+02 -0.46394836845E+02  0.19268387459E+02  0.12500000000E+03  0.80419002446E+02 0.  0.
        -24    1    1    2    0    0  0.81449569701E+02  0.46394836845E+02 -0.19268387459E+02  0.12500000000E+03  0.80419002446E+02 0.  1.
</event>
<event>
 4    1  0.1699921E-001  0.1250000E+03  0.7546771E-02  0.1126479E+00
        -11   -1    0    0    0    0  0.00000000000E+00  0.00000000000E+00  0.12500000000E+03  0.12500000000E+03  0.00000000000E+00 0.  1.
         11   -1    0    0    0    0 -0.00000000000E+00 -0.00000000000E+00 -0.12500000000E+03  0.12500000000E+03  0.00000000000E+00 0. -1.
         24    1    1    2    0    0 -0.68502534349E+02  0.34897727368E+02 -0.56985396884E+02  0.12500000000E+03  0.80419002446E+02 0.  0.
        -24    1    1    2    0    0  0.68502534349E+02 -0.34897727368E+02  0.56985396884E+02  0.12500000000E+03  0.80419002446E+02 0.  1.
</event>
<event>
 4    1  0.1699921E-001  0.1250000E+03  0.7546771E-02  0.1126479E+00
        -11   -1    0    0    0    0  0.00000000000E+00  0.00000000000E+00  0.12500000000E+03  0.12500000000E+03  0.00000000000E+00 0.  1.
         11   -1    0    0    0    0 -0.00000000000E+00 -0.00000000000E+00 -0.12500000000E+03  0.12500000000E+03  0.00000000000E+00 0. -1.
         24    1    1    2    0    0  0.25931482822E+02  0.18212006166E+02  0.90297647122E+02  0.12500000000E+03  0.80419002446E+02 0.  1.
        -24    1    1    2    0    0 -0.25931482822E+02 -0.18212006166E+02 -0.90297647122E+02  0.12500000000E+03  0.80419002446E+02 0. -1.
</event>
<event>
 4    1  0.1699921E-001  0.1250000E+03  0.7546771E-02  0.1126479E+00
        -11   -1    0    0    0    0  0.00000000000E+00  0.00000000000E+00  0.12500000000E+03  0.12500000000E+03  0.00000000000E+00 0.  1.
         11   -1    0    0    0    0 -0.00000000000E+00 -0.00000000000E+00 -0.12500000000E+03  0.12500000000E+03  0.00000000000E+00 0. -1.
         24    1    1    2    0    0 -0.37653980796E+00  0.10295694219E+02  0.95140112171E+02  0.12500000000E+03  0.80419002446E+02 0.  1.
        -24    1    1    2    0    0  0.37653980796E+00 -0.10295694219E+02 -0.95140112171E+02  0.12500000000E+03  0.80419002446E+02 0. -1.
</event>
<event>
 4    1  0.1699921E-001  0.1250000E+03  0.7546771E-02  0.1126479E+00
        -11   -1    0    0    0    0  0.00000000000E+00  0.00000000000E+00  0.12500000000E+03  0.12500000000E+03  0.00000000000E+00 0.  1.
         11   -1    0    0    0    0 -0.00000000000E+00 -0.00000000000E+00 -0.12500000000E+03  0.12500000000E+03  0.00000000000E+00 0. -1.
         24    1    1    2    0    0  0.40100845490E+02  0.25556266914E+02  0.83045670917E+02  0.12500000000E+03  0.80419002446E+02 0.  1.
        -24    1    1    2    0    0 -0.40100845490E+02 -0.25556266914E+02 -0.83045670917E+02  0.12500000000E+03  0.80419002446E+02 0. -1.
</event>
<event>
 4    1  0.1699921E-001  0.1250000E+03  0.7546771E-02  0.1126479E+00
        -11   -1    0    0    0    0  0.00000000000E+00  0.00000000000E+00  0.12500000000E+03  0.12500000000E+03  0.00000000000E+00 0.  1.
         11   -1    0    0    0    0 -0.00000000000E+00 -0.00000000000E+00 -0.12500000000E+03  0.12500000000E+03  0.00000000000E+00 0. -1.
         24    1    1    2    0    0 -0.27533699045E+02 -0.91571702537E+02  0.37818985976E+01  0.12500000000E+03  0.80419002446E+02 0.  1.
        -24    1    1    2    0    0  0.27533699045E+02  0.91571702537E+02 -0.37818985976E+01  0.12500000000E+03  0.80419002446E+02 0. -1.
</event>
<event>
 4    1  0.1699921E-001  0.1250000E+03  0.7546771E-02  0.1126479E+00
        -11   -1    0    0    0    0  0.00000000000E+00  0.00000000000E+00  0.12500000000E+03  0.12500000000E+03  0.00000000000E+00 0.  1.
         11   -1    0    0    0    0 -0.00000000000E+00 -0.00000000000E+00 -0.12500000000E+03  0.12500000000E+03  0.00000000000E+00 0. -1.
         24    1    1    2    0    0  0.87154629925E+02  0.18032138092E+01  0.39479145738E+02  0.12500000000E+03  0.80419002446E+02 0.  1.
        -24    1    1    2    0    0 -0.87154629925E+02 -0.18032138092E+01 -0.39479145738E+02  0.12500000000E+03  0.80419002446E+02 0. -1.
</event>
<event>
 4    1  0.1699921E-001  0.1250000E+03  0.7546771E-02  0.1126479E+00
        -11   -1    0    0    0    0  0.00000000000E+00  0.00000000000E+00  0.12500000000E+03  0.12500000000E+03  0.00000000000E+00 0.  1.
         11   -1    0    0    0    0 -0.00000000000E+00 -0.00000000000E+00 -0.12500000000E+03  0.12500000000E+03  0.00000000000E+00 0. -1.
         24    1    1    2    0    0 -0.19732142554E+02 -0.10228987581E+02  0.93079505848E+02  0.12500000000E+03  0.80419002446E+02 0.  1.
        -24    1    1    2    0    0  0.19732142554E+02  0.10228987581E+02 -0.93079505848E+02  0.12500000000E+03  0.80419002446E+02 0. -1.
</event>
<event>
 4    1  0.1699921E-001  0.1250000E+03  0.7546771E-02  0.1126479E+00
        -11   -1    0    0    0    0  0.00000000000E+00  0.00000000000E+00  0.12500000000E+03  0.12500000000E+03  0.00000000000E+00 0.  1.
         11   -1    0    0    0    0 -0.00000000000E+00 -0.00000000000E+00 -0.12500000000E+03  0.12500000000E+03  0.00000000000E+00 0. -1.
         24    1    1    2    0    0 -0.19473621534E+02 -0.15859308646E+02  0.92341997159E+02  0.12500000000E+03  0.80419002446E+02 0.  1.
        -24    1    1    2    0    0  0.19473621534E+02  0.15859308646E+02 -0.92341997159E+02  0.12500000000E+03  0.80419002446E+02 0. -1.
</event>
<event>
 4    1  0.1699921E-001  0.1250000E+03  0.7546771E-02  0.1126479E+00
        -11   -1    0    0    0    0  0.00000000000E+00  0.00000000000E+00  0.12500000000E+03  0.12500000000E+03  0.00000000000E+00 0.  1.
         11   -1    0    0    0    0 -0.00000000000E+00 -0.00000000000E+00 -0.12500000000E+03  0.12500000000E+03  0.00000000000E+00 0. -1.
         24    1    1    2    0    0 -0.42732164139E+02 -0.55782733088E+02  0.64961780170E+02  0.12500000000E+03  0.80419002446E+02 0.  1.
        -24    1    1    2    0    0  0.42732164139E+02  0.55782733088E+02 -0.64961780170E+02  0.12500000000E+03  0.80419002446E+02 0. -1.
</event>
<event>
 4    1  0.1699921E-001  0.1250000E+03  0.7546771E-02  0.1126479E+00
        -11   -1    0    0    0    0  0.00000000000E+00  0.00000000000E+00  0.12500000000E+03  0.12500000000E+03  0.00000000000E+00 0.  1.
         11   -1    0    0    0    0 -0.00000000000E+00 -0.00000000000E+00 -0.12500000000E+03  0.12500000000E+03  0.00000000000E+00 0. -1.
         24    1    1    2    0    0  0.58726641984E+02 -0.14439382542E+02  0.74165152186E+02  0.12500000000E+03  0.80419002446E+02 0.  1.
        -24    1    1    2    0    0 -0.58726641984E+02  0.14439382542E+02 -0.74165152186E+02  0.12500000000E+03  0.80419002446E+02 0. -1.
</event>
<event>
 4    1  0.1699921E-001  0.1250000E+03  0.7546771E-02  0.1126479E+00
        -11   -1    0    0    0    0  0.00000000000E+00  0.00000000000E+00  0.12500000000E+03  0.12500000000E+03  0.00000000000E+00 0.  1.
         11   -1    0    0    0    0 -0.00000000000E+00 -0.00000000000E+00 -0.12500000000E+03  0.12500000000E+03  0.00000000000E+00 0. -1.
         24    1    1    2    0    0  0.89787137491E+02 -0.15886089327E+01  0.33068569798E+02  0.12500000000E+03  0.80419002446E+02 0.  1.
        -24    1    1    2    0    0 -0.89787137491E+02  0.15886089327E+01 -0.33068569798E+02  0.12500000000E+03  0.80419002446E+02 0. -1.
</event>
<event>
 4    1  0.1699921E-001  0.1250000E+03  0.7546771E-02  0.1126479E+00
        -11   -1    0    0    0    0  0.00000000000E+00  0.00000000000E+00  0.12500000000E+03  0.12500000000E+03  0.00000000000E+00 0.  1.
         11   -1    0    0    0    0 -0.00000000000E+00 -0.00000000000E+00 -0.12500000000E+03  0.12500000000E+03  0.00000000000E+00 0. -1.
         24    1    1    2    0    0  0.56380234466E+02  0.37451588001E+02  0.67649329364E+02  0.12500000000E+03  0.80419002446E+02 0.  1.
        -24    1    1    2    0    0 -0.56380234466E+02 -0.37451588001E+02 -0.67649329364E+02  0.12500000000E+03  0.80419002446E+02 0. -1.
</event>
<event>
 4    1  0.1699921E-001  0.1250000E+03  0.7546771E-02  0.1126479E+00
        -11   -1    0    0    0    0  0.00000000000E+00  0.00000000000E+00  0.12500000000E+03  0.12500000000E+03  0.00000000000E+00 0.  1.
         11   -1    0    0    0    0 -0.00000000000E+00 -0.00000000000E+00 -0.12500000000E+03  0.12500000000E+03  0.00000000000E+00 0. -1.
         24    1    1    2    0    0  0.53896469493E+02 -0.16176485961E+02  0.77403332769E+02  0.12500000000E+03  0.80419002446E+02 0.  1.
        -24    1    1    2    0    0 -0.53896469493E+02  0.16176485961E+02 -0.77403332769E+02  0.12500000000E+03  0.80419002446E+02 0. -1.
</event>
<event>
 4    1  0.1699921E-001  0.1250000E+03  0.7546771E-02  0.1126479E+00
        -11   -1    0    0    0    0  0.00000000000E+00  0.00000000000E+00  0.12500000000E+03  0.12500000000E+03  0.00000000000E+00 0.  1.
         11   -1    0    0    0    0 -0.00000000000E+00 -0.00000000000E+00 -0.12500000000E+03  0.12500000000E+03  0.00000000000E+00 0. -1.
         24    1    1    2    0    0  0.25090374829E+00  0.46489634433E+02  0.83644694890E+02  0.12500000000E+03  0.80419002446E+02 0.  1.
        -24    1    1    2    0    0 -0.25090374829E+00 -0.46489634433E+02 -0.83644694890E+02  0.12500000000E+03  0.80419002446E+02 0. -1.
</event>
<event>
 4    1  0.1699921E-001  0.1250000E+03  0.7546771E-02  0.1126479E+00
        -11   -1    0    0    0    0  0.00000000000E+00  0.00000000000E+00  0.12500000000E+03  0.12500000000E+03  0.00000000000E+00 0.  1.
         11   -1    0    0    0    0 -0.00000000000E+00 -0.00000000000E+00 -0.12500000000E+03  0.12500000000E+03  0.00000000000E+00 0. -1.
         24    1    1    2    0    0  0.17657279747E+02  0.32390776932E+02  0.88299728693E+02  0.12500000000E+03  0.80419002446E+02 0.  1.
        -24    1    1    2    0    0 -0.17657279747E+02 -0.32390776932E+02 -0.88299728693E+02  0.12500000000E+03  0.80419002446E+02 0. -1.
</event>
<event>
 4    1  0.1699921E-001  0.1250000E+03  0.7546771E-02  0.1126479E+00
        -11   -1    0    0    0    0  0.00000000000E+00  0.00000000000E+00  0.12500000000E+03  0.12500000000E+03  0.00000000000E+00 0.  1.
         11   -1    0    0    0    0 -0.00000000000E+00 -0.00000000000E+00 -0.12500000000E+03  0.12500000000E+03  0.00000000000E+00 0. -1.
         24    1    1    2    0    0 -0.37843961324E+02 -0.13880304551E+02  0.86792602118E+02  0.12500000000E+03  0.80419002446E+02 0.  1.
        -24    1    1    2    0    0  0.37843961324E+02  0.13880304551E+02 -0.86792602118E+02  0.12500000000E+03  0.80419002446E+02 0. -1.
</event>
<event>
 4    1  0.1699921E-001  0.1250000E+03  0.7546771E-02  0.1126479E+00
        -11   -1    0    0    0    0  0.00000000000E+00  0.00000000000E+00  0.12500000000E+03  0.12500000000E+03  0.00000000000E+00 0.  1.
         11   -1    0    0    0    0 -0.00000000000E+00 -0.00000000000E+00 -0.12500000000E+03  0.12500000000E+03  0.00000000000E+00 0. -1.
         24    1    1    2    0    0  0.43853744207E+02  0.37856101154E+01  0.84972362099E+02  0.12500000000E+03  0.80419002446E+02 0.  1.
        -24    1    1    2    0    0 -0.43853744207E+02 -0.37856101154E+01 -0.84972362099E+02  0.12500000000E+03  0.80419002446E+02 0. -1.
</event>
<event>
 4    1  0.1699921E-001  0.1250000E+03  0.7546771E-02  0.1126479E+00
        -11   -1    0    0    0    0  0.00000000000E+00  0.00000000000E+00  0.12500000000E+03  0.12500000000E+03  0.00000000000E+00 0.  1.
         11   -1    0    0    0    0 -0.00000000000E+00 -0.00000000000E+00 -0.12500000000E+03  0.12500000000E+03  0.00000000000E+00 0. -1.
         24    1    1    2    0    0  0.94811043994E+02  0.12738908480E+02 -0.25239241553E+01  0.12500000000E+03  0.80419002446E+02 0.  1.
        -24    1    1    2    0    0 -0.94811043994E+02 -0.12738908480E+02  0.25239241553E+01  0.12500000000E+03  0.80419002446E+02 0. -1.
</event>
<event>
 4    1  0.1699921E-001  0.1250000E+03  0.7546771E-02  0.1126479E+00
        -11   -1    0    0    0    0  0.00000000000E+00  0.00000000000E+00  0.12500000000E+03  0.12500000000E+03  0.00000000000E+00 0.  1.
         11   -1    0    0    0    0 -0.00000000000E+00 -0.00000000000E+00 -0.12500000000E+03  0.12500000000E+03  0.00000000000E+00 0. -1.
         24    1    1    2    0    0  0.68712032355E+02  0.30469905503E+02  0.59228586965E+02  0.12500000000E+03  0.80419002446E+02 0.  1.
        -24    1    1    2    0    0 -0.68712032355E+02 -0.30469905503E+02 -0.59228586965E+02  0.12500000000E+03  0.80419002446E+02 0. -1.
</event>
<event>
 4    1  0.1699921E-001  0.1250000E+03  0.7546771E-02  0.1126479E+00
        -11   -1    0    0    0    0  0.00000000000E+00  0.00000000000E+00  0.12500000000E+03  0.12500000000E+03  0.00000000000E+00 0.  1.
         11   -1    0    0    0    0 -0.00000000000E+00 -0.00000000000E+00 -0.12500000000E+03  0.12500000000E+03  0.00000000000E+00 0. -1.
         24    1    1    2    0    0 -0.53493504036E+02 -0.40073082264E+02  0.68486328193E+02  0.12500000000E+03  0.80419002446E+02 0.  1.
        -24    1    1    2    0    0  0.53493504036E+02  0.40073082264E+02 -0.68486328193E+02  0.12500000000E+03  0.80419002446E+02 0. -1.
</event>
<event>
 4    1  0.1699921E-001  0.1250000E+03  0.7546771E-02  0.1126479E+00
        -11   -1    0    0    0    0  0.00000000000E+00  0.00000000000E+00  0.12500000000E+03  0.12500000000E+03  0.00000000000E+00 0.  1.
         11   -1    0    0    0    0 -0.00000000000E+00 -0.00000000000E+00 -0.12500000000E+03  0.12500000000E+03  0.00000000000E+00 0. -1.
         24    1    1    2    0    0  0.91699426153E+02  0.94200750372E+00  0.27351634516E+02  0.12500000000E+03  0.80419002446E+02 0. -1.
        -24    1    1    2    0    0 -0.91699426153E+02 -0.94200750372E+00 -0.27351634516E+02  0.12500000000E+03  0.80419002446E+02 0.  1.
</event>
<event>
 4    1  0.1699921E-001  0.1250000E+03  0.7546771E-02  0.1126479E+00
        -11   -1    0    0    0    0  0.00000000000E+00  0.00000000000E+00  0.12500000000E+03  0.12500000000E+03  0.00000000000E+00 0.  1.
         11   -1    0    0    0    0 -0.00000000000E+00 -0.00000000000E+00 -0.12500000000E+03  0.12500000000E+03  0.00000000000E+00 0. -1.
         24    1    1    2    0    0 -0.19971678945E+02 -0.19550077122E+02  0.91524371455E+02  0.12500000000E+03  0.80419002446E+02 0.  1.
        -24    1    1    2    0    0  0.19971678945E+02  0.19550077122E+02 -0.91524371455E+02  0.12500000000E+03  0.80419002446E+02 0. -1.
</event>
<event>
 4    1  0.1699921E-001  0.1250000E+03  0.7546771E-02  0.1126479E+00
        -11   -1    0    0    0    0  0.00000000000E+00  0.00000000000E+00  0.12500000000E+03  0.12500000000E+03  0.00000000000E+00 0.  1.
         11   -1    0    0    0    0 -0.00000000000E+00 -0.00000000000E+00 -0.12500000000E+03  0.12500000000E+03  0.00000000000E+00 0. -1.
         24    1    1    2    0    0 -0.27576027208E+02  0.17740011826E+02  0.89903496870E+02  0.12500000000E+03  0.80419002446E+02 0.  1.
        -24    1    1    2    0    0  0.27576027208E+02 -0.17740011826E+02 -0.89903496870E+02  0.12500000000E+03  0.80419002446E+02 0. -1.
</event>
<event>
 4    1  0.1699921E-001  0.1250000E+03  0.7546771E-02  0.1126479E+00
        -11   -1    0    0    0    0  0.00000000000E+00  0.00000000000E+00  0.12500000000E+03  0.12500000000E+03  0.00000000000E+00 0.  1.
         11   -1    0    0    0    0 -0.00000000000E+00 -0.00000000000E+00 -0.12500000000E+03  0.12500000000E+03  0.00000000000E+00 0. -1.
         24    1    1    2    0    0  0.55525795586E+02 -0.12833065010E+02  0.76876410638E+02  0.12500000000E+03  0.80419002446E+02 0.  1.
        -24    1    1    2    0    0 -0.55525795586E+02  0.12833065010E+02 -0.76876410638E+02  0.12500000000E+03  0.80419002446E+02 0. -1.
</event>
<event>
 4    1  0.1699921E-001  0.1250000E+03  0.7546771E-02  0.1126479E+00
        -11   -1    0    0    0    0  0.00000000000E+00  0.00000000000E+00  0.12500000000E+03  0.12500000000E+03  0.00000000000E+00 0.  1.
         11   -1    0    0    0    0 -0.00000000000E+00 -0.00000000000E+00 -0.12500000000E+03  0.12500000000E+03  0.00000000000E+00 0. -1.
         24    1    1    2    0    0  0.19352729592E+01 -0.82336451484E+01  0.95321801555E+02  0.12500000000E+03  0.80419002446E+02 0.  1.
        -24    1    1    2    0    0 -0.19352729592E+01  0.82336451484E+01 -0.95321801555E+02  0.12500000000E+03  0.80419002446E+02 0.  0.
</event>
<event>
 4    1  0.1699921E-001  0.1250000E+03  0.7546771E-02  0.1126479E+00
        -11   -1    0    0    0    0  0.00000000000E+00  0.00000000000E+00  0.12500000000E+03  0.12500000000E+03  0.00000000000E+00 0.  1.
         11   -1    0    0    0    0 -0.00000000000E+00 -0.00000000000E+00 -0.12500000000E+03  0.12500000000E+03  0.00000000000E+00 0. -1.
         24    1    1    2    0    0 -0.52038555613E+02  0.48105527500E+02  0.64308871855E+02  0.12500000000E+03  0.80419002446E+02 0.  1.
        -24    1    1    2    0    0  0.52038555613E+02 -0.48105527500E+02 -0.64308871855E+02  0.12500000000E+03  0.80419002446E+02 0. -1.
</event>
<event>
 4    1  0.1699921E-001  0.1250000E+03  0.7546771E-02  0.1126479E+00
        -11   -1    0    0    0    0  0.00000000000E+00  0.00000000000E+00  0.12500000000E+03  0.12500000000E+03  0.00000000000E+00 0.  1.
         11   -1    0    0    0    0 -0.00000000000E+00 -0.00000000000E+00 -0.12500000000E+03  0.12500000000E+03  0.00000000000E+00 0. -1.
         24    1    1    2    0    0 -0.93494660722E+02 -0.61753695276E+01  0.19452436180E+02  0.12500000000E+03  0.80419002446E+02 0. -1.
        -24    1    1    2    0    0  0.93494660722E+02  0.61753695276E+01 -0.19452436180E+02  0.12500000000E+03  0.80419002446E+02 0.  1.
</event>
<event>
 4    1  0.1699921E-001  0.1250000E+03  0.7546771E-02  0.1126479E+00
        -11   -1    0    0    0    0  0.00000000000E+00  0.00000000000E+00  0.12500000000E+03  0.12500000000E+03  0.00000000000E+00 0.  1.
         11   -1    0    0    0    0 -0.00000000000E+00 -0.00000000000E+00 -0.12500000000E+03  0.12500000000E+03  0.00000000000E+00 0. -1.
         24    1    1    2    0    0  0.29728485384E+02 -0.42908083015E+02  0.80205346545E+02  0.12500000000E+03  0.80419002446E+02 0.  1.
        -24    1    1    2    0    0 -0.29728485384E+02  0.42908083015E+02 -0.80205346545E+02  0.12500000000E+03  0.80419002446E+02 0. -1.
</event>
<event>
 4    1  0.1699921E-001  0.1250000E+03  0.7546771E-02  0.1126479E+00
        -11   -1    0    0    0    0  0.00000000000E+00  0.00000000000E+00  0.12500000000E+03  0.12500000000E+03  0.00000000000E+00 0.  1.
         11   -1    0    0    0    0 -0.00000000000E+00 -0.00000000000E+00 -0.12500000000E+03  0.12500000000E+03  0.00000000000E+00 0. -1.
         24    1    1    2    0    0 -0.25708987153E+02  0.37016107637E+02  0.84419427863E+02  0.12500000000E+03  0.80419002446E+02 0.  1.
        -24    1    1    2    0    0  0.25708987153E+02 -0.37016107637E+02 -0.84419427863E+02  0.12500000000E+03  0.80419002446E+02 0. -1.
</event>
<event>
 4    1  0.1699921E-001  0.1250000E+03  0.7546771E-02  0.1126479E+00
        -11   -1    0    0    0    0  0.00000000000E+00  0.00000000000E+00  0.12500000000E+03  0.12500000000E+03  0.00000000000E+00 0.  1.
         11   -1    0    0    0    0 -0.00000000000E+00 -0.00000000000E+00 -0.12500000000E+03  0.12500000000E+03  0.00000000000E+00 0. -1.
         24    1    1    2    0    0  0.22714765299E+02  0.78144856963E+02  0.50350817405E+02  0.12500000000E+03  0.80419002446E+02 0.  1.
        -24    1    1    2    0    0 -0.22714765299E+02 -0.78144856963E+02 -0.50350817405E+02  0.12500000000E+03  0.80419002446E+02 0. -1.
</event>
<event>
 4    1  0.1699921E-001  0.1250000E+03  0.7546771E-02  0.1126479E+00
        -11   -1    0    0    0    0  0.00000000000E+00  0.00000000000E+00  0.12500000000E+03  0.12500000000E+03  0.00000000000E+00 0.  1.
         11   -1    0    0    0    0 -0.00000000000E+00 -0.00000000000E+00 -0.12500000000E+03  0.12500000000E+03  0.00000000000E+00 0. -1.
         24    1    1    2    0    0  0.37798644195E+02  0.76495568155E+02  0.43329834933E+02  0.12500000000E+03  0.80419002446E+02 0. -1.
        -24    1    1    2    0    0 -0.37798644195E+02 -0.76495568155E+02 -0.43329834933E+02  0.12500000000E+03  0.80419002446E+02 0.  1.
</event>
<event>
 4    1  0.1699921E-001  0.1250000E+03  0.7546771E-02  0.1126479E+00
        -11   -1    0    0    0    0  0.00000000000E+00  0.00000000000E+00  0.12500000000E+03  0.12500000000E+03  0.00000000000E+00 0.  1.
         11   -1    0    0    0    0 -0.00000000000E+00 -0.00000000000E+00 -0.12500000000E+03  0.12500000000E+03  0.00000000000E+00 0. -1.
         24    1    1    2    0    0 -0.42648629298E+02 -0.53680698702E+02  0.66762722019E+02  0.12500000000E+03  0.80419002446E+02 0.  1.
        -24    1    1    2    0    0  0.42648629298E+02  0.53680698702E+02 -0.66762722019E+02  0.12500000000E+03  0.80419002446E+02 0. -1.
</event>
<event>
 4    1  0.1699921E-001  0.1250000E+03  0.7546771E-02  0.1126479E+00
        -11   -1    0    0    0    0  0.00000000000E+00  0.00000000000E+00  0.12500000000E+03  0.12500000000E+03  0.00000000000E+00 0.  1.
         11   -1    0    0    0    0 -0.00000000000E+00 -0.00000000000E+00 -0.12500000000E+03  0.12500000000E+03  0.00000000000E+00 0. -1.
         24    1    1    2    0    0 -0.40262341703E+02  0.45775617185E+02  0.73765308632E+02  0.12500000000E+03  0.80419002446E+02 0.  1.
        -24    1    1    2    0    0  0.40262341703E+02 -0.45775617185E+02 -0.73765308632E+02  0.12500000000E+03  0.80419002446E+02 0. -1.
</event>
<event>
 4    1  0.1699921E-001  0.1250000E+03  0.7546771E-02  0.1126479E+00
        -11   -1    0    0    0    0  0.00000000000E+00  0.00000000000E+00  0.12500000000E+03  0.12500000000E+03  0.00000000000E+00 0.  1.
         11   -1    0    0    0    0 -0.00000000000E+00 -0.00000000000E+00 -0.12500000000E+03  0.12500000000E+03  0.00000000000E+00 0. -1.
         24    1    1    2    0    0  0.28491148341E+02  0.73477752869E+02  0.54286815574E+02  0.12500000000E+03  0.80419002446E+02 0.  1.
        -24    1    1    2    0    0 -0.28491148341E+02 -0.73477752869E+02 -0.54286815574E+02  0.12500000000E+03  0.80419002446E+02 0. -1.
</event>
<event>
 4    1  0.1699921E-001  0.1250000E+03  0.7546771E-02  0.1126479E+00
        -11   -1    0    0    0    0  0.00000000000E+00  0.00000000000E+00  0.12500000000E+03  0.12500000000E+03  0.00000000000E+00 0.  1.
         11   -1    0    0    0    0 -0.00000000000E+00 -0.00000000000E+00 -0.12500000000E+03  0.12500000000E+03  0.00000000000E+00 0. -1.
         24    1    1    2    0    0 -0.16319011087E+02  0.14827230908E+02  0.93121571864E+02  0.12500000000E+03  0.80419002446E+02 0.  1.
        -24    1    1    2    0    0  0.16319011087E+02 -0.14827230908E+02 -0.93121571864E+02  0.12500000000E+03  0.80419002446E+02 0.  1.
</event>
<event>
 4    1  0.1699921E-001  0.1250000E+03  0.7546771E-02  0.1126479E+00
        -11   -1    0    0    0    0  0.00000000000E+00  0.00000000000E+00  0.12500000000E+03  0.12500000000E+03  0.00000000000E+00 0.  1.
         11   -1    0    0    0    0 -0.00000000000E+00 -0.00000000000E+00 -0.12500000000E+03  0.12500000000E+03  0.00000000000E+00 0. -1.
         24    1    1    2    0    0  0.44649030184E+02  0.49967270387E+00  0.84640406878E+02  0.12500000000E+03  0.80419002446E+02 0.  1.
        -24    1    1    2    0    0 -0.44649030184E+02 -0.49967270387E+00 -0.84640406878E+02  0.12500000000E+03  0.80419002446E+02 0. -1.
</event>
<event>
 4    1  0.1699921E-001  0.1250000E+03  0.7546771E-02  0.1126479E+00
        -11   -1    0    0    0    0  0.00000000000E+00  0.00000000000E+00  0.12500000000E+03  0.12500000000E+03  0.00000000000E+00 0.  1.
         11   -1    0    0    0    0 -0.00000000000E+00 -0.00000000000E+00 -0.12500000000E+03  0.12500000000E+03  0.00000000000E+00 0. -1.
         24    1    1    2    0    0  0.35424298771E+02  0.27669111096E+02  0.84482681026E+02  0.12500000000E+03  0.80419002446E+02 0.  1.
        -24    1    1    2    0    0 -0.35424298771E+02 -0.27669111096E+02 -0.84482681026E+02  0.12500000000E+03  0.80419002446E+02 0. -1.
</event>
<event>
 4    1  0.1699921E-001  0.1250000E+03  0.7546771E-02  0.1126479E+00
        -11   -1    0    0    0    0  0.00000000000E+00  0.00000000000E+00  0.12500000000E+03  0.12500000000E+03  0.00000000000E+00 0.  1.
         11   -1    0    0    0    0 -0.00000000000E+00 -0.00000000000E+00 -0.12500000000E+03  0.12500000000E+03  0.00000000000E+00 0. -1.
         24    1    1    2    0    0  0.23076512845E+02  0.76447009489E+00  0.92869123965E+02  0.12500000000E+03  0.80419002446E+02 0.  1.
        -24    1    1    2    0    0 -0.23076512845E+02 -0.76447009489E+00 -0.92869123965E+02  0.12500000000E+03  0.80419002446E+02 0.  0.
</event>
<event>
 4    1  0.1699921E-001  0.1250000E+03  0.7546771E-02  0.1126479E+00
        -11   -1    0    0    0    0  0.00000000000E+00  0.00000000000E+00  0.12500000000E+03  0.12500000000E+03  0.00000000000E+00 0.  1.
         11   -1    0    0    0    0 -0.00000000000E+00 -0.00000000000E+00 -0.12500000000E+03  0.12500000000E+03  0.00000000000E+00 0. -1.
         24    1    1    2    0    0  0.34340945199E+02 -0.63245113873E+02  0.63075661706E+02  0.12500000000E+03  0.80419002446E+02 0.  1.
        -24    1    1    2    0    0 -0.34340945199E+02  0.63245113873E+02 -0.63075661706E+02  0.12500000000E+03  0.80419002446E+02 0. -1.
</event>
<event>
 4    1  0.1699921E-001  0.1250000E+03  0.7546771E-02  0.1126479E+00
        -11   -1    0    0    0    0  0.00000000000E+00  0.00000000000E+00  0.12500000000E+03  0.12500000000E+03  0.00000000000E+00 0.  1.
         11   -1    0    0    0    0 -0.00000000000E+00 -0.00000000000E+00 -0.12500000000E+03  0.12500000000E+03  0.00000000000E+00 0. -1.
         24    1    1    2    0    0  0.93777830520E+01 -0.26288401888E+02  0.91535573177E+02  0.12500000000E+03  0.80419002446E+02 0.  1.
        -24    1    1    2    0    0 -0.93777830520E+01  0.26288401888E+02 -0.91535573177E+02  0.12500000000E+03  0.80419002446E+02 0. -1.
</event>
<event>
 4    1  0.1699921E-001  0.1250000E+03  0.7546771E-02  0.1126479E+00
        -11   -1    0    0    0    0  0.00000000000E+00  0.00000000000E+00  0.12500000000E+03  0.12500000000E+03  0.00000000000E+00 0.  1.
         11   -1    0    0    0    0 -0.00000000000E+00 -0.00000000000E+00 -0.12500000000E+03  0.12500000000E+03  0.00000000000E+00 0. -1.
         24    1    1    2    0    0 -0.26438641862E+02  0.91544718135E+02 -0.88513752480E+01  0.12500000000E+03  0.80419002446E+02 0.  0.
        -24    1    1    2    0    0  0.26438641862E+02 -0.91544718135E+02  0.88513752480E+01  0.12500000000E+03  0.80419002446E+02 0.  0.
</event>
<event>
 4    1  0.1699921E-001  0.1250000E+03  0.7546771E-02  0.1126479E+00
        -11   -1    0    0    0    0  0.00000000000E+00  0.00000000000E+00  0.12500000000E+03  0.12500000000E+03  0.00000000000E+00 0.  1.
         11   -1    0    0    0    0 -0.00000000000E+00 -0.00000000000E+00 -0.12500000000E+03  0.12500000000E+03  0.00000000000E+00 0. -1.
         24    1    1    2    0    0 -0.30141048168E+02  0.47385194962E+01  0.90701971830E+02  0.12500000000E+03  0.80419002446E+02 0.  1.
        -24    1    1    2    0    0  0.30141048168E+02 -0.47385194962E+01 -0.90701971830E+02  0.12500000000E+03  0.80419002446E+02 0. -1.
</event>
<event>
 4    1  0.1699921E-001  0.1250000E+03  0.7546771E-02  0.1126479E+00
        -11   -1    0    0    0    0  0.00000000000E+00  0.00000000000E+00  0.12500000000E+03  0.12500000000E+03  0.00000000000E+00 0.  1.
         11   -1    0    0    0    0 -0.00000000000E+00 -0.00000000000E+00 -0.12500000000E+03  0.12500000000E+03  0.00000000000E+00 0. -1.
         24    1    1    2    0    0 -0.45819231208E+02 -0.21096031377E+02  0.81322441904E+02  0.12500000000E+03  0.80419002446E+02 0.  1.
        -24    1    1    2    0    0  0.45819231208E+02  0.21096031377E+02 -0.81322441904E+02  0.12500000000E+03  0.80419002446E+02 0. -1.
</event>
<event>
 4    1  0.1699921E-001  0.1250000E+03  0.7546771E-02  0.1126479E+00
        -11   -1    0    0    0    0  0.00000000000E+00  0.00000000000E+00  0.12500000000E+03  0.12500000000E+03  0.00000000000E+00 0.  1.
         11   -1    0    0    0    0 -0.00000000000E+00 -0.00000000000E+00 -0.12500000000E+03  0.12500000000E+03  0.00000000000E+00 0. -1.
         24    1    1    2    0    0  0.40242592517E+02 -0.20842647697E+02  0.84284647654E+02  0.12500000000E+03  0.80419002446E+02 0.  1.
        -24    1    1    2    0    0 -0.40242592517E+02  0.20842647697E+02 -0.84284647654E+02  0.12500000000E+03  0.80419002446E+02 0. -1.
</event>
<event>
 4    1  0.1699921E-001  0.1250000E+03  0.7546771E-02  0.1126479E+00
        -11   -1    0    0    0    0  0.00000000000E+00  0.00000000000E+00  0.12500000000E+03  0.12500000000E+03  0.00000000000E+00 0.  1.
         11   -1    0    0    0    0 -0.00000000000E+00 -0.00000000000E+00 -0.12500000000E+03  0.12500000000E+03  0.00000000000E+00 0. -1.
         24    1    1    2    0    0 -0.30205926451E+02  0.32574592841E+02  0.84760143665E+02  0.12500000000E+03  0.80419002446E+02 0.  1.
        -24    1    1    2    0    0  0.30205926451E+02 -0.32574592841E+02 -0.84760143665E+02  0.12500000000E+03  0.80419002446E+02 0. -1.
</event>
<event>
 4    1  0.1699921E-001  0.1250000E+03  0.7546771E-02  0.1126479E+00
        -11   -1    0    0    0    0  0.00000000000E+00  0.00000000000E+00  0.12500000000E+03  0.12500000000E+03  0.00000000000E+00 0.  1.
         11   -1    0    0    0    0 -0.00000000000E+00 -0.00000000000E+00 -0.12500000000E+03  0.12500000000E+03  0.00000000000E+00 0. -1.
         24    1    1    2    0    0 -0.32854671967E+02  0.42037513901E+02  0.79443073962E+02  0.12500000000E+03  0.80419002446E+02 0.  1.
        -24    1    1    2    0    0  0.32854671967E+02 -0.42037513901E+02 -0.79443073962E+02  0.12500000000E+03  0.80419002446E+02 0. -1.
</event>
<event>
 4    1  0.1699921E-001  0.1250000E+03  0.7546771E-02  0.1126479E+00
        -11   -1    0    0    0    0  0.00000000000E+00  0.00000000000E+00  0.12500000000E+03  0.12500000000E+03  0.00000000000E+00 0.  1.
         11   -1    0    0    0    0 -0.00000000000E+00 -0.00000000000E+00 -0.12500000000E+03  0.12500000000E+03  0.00000000000E+00 0. -1.
         24    1    1    2    0    0  0.10350920227E+02 -0.92803434585E+02 -0.20932391773E+02  0.12500000000E+03  0.80419002446E+02 0.  1.
        -24    1    1    2    0    0 -0.10350920227E+02  0.92803434585E+02  0.20932391773E+02  0.12500000000E+03  0.80419002446E+02 0. -1.
</event>
<event>
 4    1  0.1699921E-001  0.1250000E+03  0.7546771E-02  0.1126479E+00
        -11   -1    0    0    0    0  0.00000000000E+00  0.00000000000E+00  0.12500000000E+03  0.12500000000E+03  0.00000000000E+00 0.  1.
         11   -1    0    0    0    0 -0.00000000000E+00 -0.00000000000E+00 -0.12500000000E+03  0.12500000000E+03  0.00000000000E+00 0. -1.
         24    1    1    2    0    0  0.58978399593E+01 -0.15804293834E+02  0.94197790982E+02  0.12500000000E+03  0.80419002446E+02 0.  1.
        -24    1    1    2    0    0 -0.58978399593E+01  0.15804293834E+02 -0.94197790982E+02  0.12500000000E+03  0.80419002446E+02 0.  0.
</event>
<event>
 4    1  0.1699921E-001  0.1250000E+03  0.7546771E-02  0.1126479E+00
        -11   -1    0    0    0    0  0.00000000000E+00  0.00000000000E+00  0.12500000000E+03  0.12500000000E+03  0.00000000000E+00 0.  1.
         11   -1    0    0    0    0 -0.00000000000E+00 -0.00000000000E+00 -0.12500000000E+03  0.12500000000E+03  0.00000000000E+00 0. -1.
         24    1    1    2    0    0 -0.65716429732E+02 -0.22680509492E+02  0.65762674810E+02  0.12500000000E+03  0.80419002446E+02 0.  1.
        -24    1    1    2    0    0  0.65716429732E+02  0.22680509492E+02 -0.65762674810E+02  0.12500000000E+03  0.80419002446E+02 0. -1.
</event>
<event>
 4    1  0.1699921E-001  0.1250000E+03  0.7546771E-02  0.1126479E+00
        -11   -1    0    0    0    0  0.00000000000E+00  0.00000000000E+00  0.12500000000E+03  0.12500000000E+03  0.00000000000E+00 0.  1.
         11   -1    0    0    0    0 -0.00000000000E+00 -0.00000000000E+00 -0.12500000000E+03  0.12500000000E+03  0.00000000000E+00 0. -1.
         24    1    1    2    0    0  0.10786157241E+02 -0.46843542722E+02  0.82747358645E+02  0.12500000000E+03  0.80419002446E+02 0.  1.
        -24    1    1    2    0    0 -0.10786157241E+02  0.46843542722E+02 -0.82747358645E+02  0.12500000000E+03  0.80419002446E+02 0. -1.
</event>
<event>
 4    1  0.1699921E-001  0.1250000E+03  0.7546771E-02  0.1126479E+00
        -11   -1    0    0    0    0  0.00000000000E+00  0.00000000000E+00  0.12500000000E+03  0.12500000000E+03  0.00000000000E+00 0.  1.
         11   -1    0    0    0    0 -0.00000000000E+00 -0.00000000000E+00 -0.12500000000E+03  0.12500000000E+03  0.00000000000E+00 0. -1.
         24    1    1    2    0    0  0.26514933101E+02  0.91397186275E+02  0.10064626638E+02  0.12500000000E+03  0.80419002446E+02 0.  1.
        -24    1    1    2    0    0 -0.26514933101E+02 -0.91397186275E+02 -0.10064626638E+02  0.12500000000E+03  0.80419002446E+02 0.  0.
</event>
<event>
 4    1  0.1699921E-001  0.1250000E+03  0.7546771E-02  0.1126479E+00
        -11   -1    0    0    0    0  0.00000000000E+00  0.00000000000E+00  0.12500000000E+03  0.12500000000E+03  0.00000000000E+00 0.  1.
         11   -1    0    0    0    0 -0.00000000000E+00 -0.00000000000E+00 -0.12500000000E+03  0.12500000000E+03  0.00000000000E+00 0. -1.
         24    1    1    2    0    0  0.23408562163E+02 -0.11583860305E+02  0.92063225251E+02  0.12500000000E+03  0.80419002446E+02 0.  1.
        -24    1    1    2    0    0 -0.23408562163E+02  0.11583860305E+02 -0.92063225251E+02  0.12500000000E+03  0.80419002446E+02 0. -1.
</event>
<event>
 4    1  0.1699921E-001  0.1250000E+03  0.7546771E-02  0.1126479E+00
        -11   -1    0    0    0    0  0.00000000000E+00  0.00000000000E+00  0.12500000000E+03  0.12500000000E+03  0.00000000000E+00 0.  1.
         11   -1    0    0    0    0 -0.00000000000E+00 -0.00000000000E+00 -0.12500000000E+03  0.12500000000E+03  0.00000000000E+00 0. -1.
         24    1    1    2    0    0  0.36324538801E+01 -0.40333494100E+02  0.86705239623E+02  0.12500000000E+03  0.80419002446E+02 0.  1.
        -24    1    1    2    0    0 -0.36324538801E+01  0.40333494100E+02 -0.86705239623E+02  0.12500000000E+03  0.80419002446E+02 0. -1.
</event>
<event>
 4    1  0.1699921E-001  0.1250000E+03  0.7546771E-02  0.1126479E+00
        -11   -1    0    0    0    0  0.00000000000E+00  0.00000000000E+00  0.12500000000E+03  0.12500000000E+03  0.00000000000E+00 0.  1.
         11   -1    0    0    0    0 -0.00000000000E+00 -0.00000000000E+00 -0.12500000000E+03  0.12500000000E+03  0.00000000000E+00 0. -1.
         24    1    1    2    0    0 -0.43160258711E+02 -0.42195814923E+02  0.74259607572E+02  0.12500000000E+03  0.80419002446E+02 0.  1.
        -24    1    1    2    0    0  0.43160258711E+02  0.42195814923E+02 -0.74259607572E+02  0.12500000000E+03  0.80419002446E+02 0. -1.
</event>
<event>
 4    1  0.1699921E-001  0.1250000E+03  0.7546771E-02  0.1126479E+00
        -11   -1    0    0    0    0  0.00000000000E+00  0.00000000000E+00  0.12500000000E+03  0.12500000000E+03  0.00000000000E+00 0.  1.
         11   -1    0    0    0    0 -0.00000000000E+00 -0.00000000000E+00 -0.12500000000E+03  0.12500000000E+03  0.00000000000E+00 0. -1.
         24    1    1    2    0    0  0.25256189913E+02 -0.75136911117E+02  0.53612997533E+02  0.12500000000E+03  0.80419002446E+02 0.  1.
        -24    1    1    2    0    0 -0.25256189913E+02  0.75136911117E+02 -0.53612997533E+02  0.12500000000E+03  0.80419002446E+02 0. -1.
</event>
<event>
 4    1  0.1699921E-001  0.1250000E+03  0.7546771E-02  0.1126479E+00
        -11   -1    0    0    0    0  0.00000000000E+00  0.00000000000E+00  0.12500000000E+03  0.12500000000E+03  0.00000000000E+00 0.  1.
         11   -1    0    0    0    0 -0.00000000000E+00 -0.00000000000E+00 -0.12500000000E+03  0.12500000000E+03  0.00000000000E+00 0. -1.
         24    1    1    2    0    0  0.23092193432E+02 -0.14445663340E+02  0.91737982640E+02  0.12500000000E+03  0.80419002446E+02 0.  1.
        -24    1    1    2    0    0 -0.23092193432E+02  0.14445663340E+02 -0.91737982640E+02  0.12500000000E+03  0.80419002446E+02 0. -1.
</event>
<event>
 4    1  0.1699921E-001  0.1250000E+03  0.7546771E-02  0.1126479E+00
        -11   -1    0    0    0    0  0.00000000000E+00  0.00000000000E+00  0.12500000000E+03  0.12500000000E+03  0.00000000000E+00 0.  1.
         11   -1    0    0    0    0 -0.00000000000E+00 -0.00000000000E+00 -0.12500000000E+03  0.12500000000E+03  0.00000000000E+00 0. -1.
         24    1    1    2    0    0 -0.48910096332E+02 -0.19832542941E+02  0.79826416448E+02  0.12500000000E+03  0.80419002446E+02 0.  1.
        -24    1    1    2    0    0  0.48910096332E+02  0.19832542941E+02 -0.79826416448E+02  0.12500000000E+03  0.80419002446E+02 0. -1.
</event>
<event>
 4    1  0.1699921E-001  0.1250000E+03  0.7546771E-02  0.1126479E+00
        -11   -1    0    0    0    0  0.00000000000E+00  0.00000000000E+00  0.12500000000E+03  0.12500000000E+03  0.00000000000E+00 0.  1.
         11   -1    0    0    0    0 -0.00000000000E+00 -0.00000000000E+00 -0.12500000000E+03  0.12500000000E+03  0.00000000000E+00 0. -1.
         24    1    1    2    0    0 -0.13375970758E+02  0.41326004023E+02  0.85270328036E+02  0.12500000000E+03  0.80419002446E+02 0.  1.
        -24    1    1    2    0    0  0.13375970758E+02 -0.41326004023E+02 -0.85270328036E+02  0.12500000000E+03  0.80419002446E+02 0. -1.
</event>
<event>
 4    1  0.1699921E-001  0.1250000E+03  0.7546771E-02  0.1126479E+00
        -11   -1    0    0    0    0  0.00000000000E+00  0.00000000000E+00  0.12500000000E+03  0.12500000000E+03  0.00000000000E+00 0.  1.
         11   -1    0    0    0    0 -0.00000000000E+00 -0.00000000000E+00 -0.12500000000E+03  0.12500000000E+03  0.00000000000E+00 0. -1.
         24    1    1    2    0    0  0.67499992954E+01 -0.31737301352E+02  0.90027580541E+02  0.12500000000E+03  0.80419002446E+02 0.  1.
        -24    1    1    2    0    0 -0.67499992954E+01  0.31737301352E+02 -0.90027580541E+02  0.12500000000E+03  0.80419002446E+02 0. -1.
</event>
<event>
 4    1  0.1699921E-001  0.1250000E+03  0.7546771E-02  0.1126479E+00
        -11   -1    0    0    0    0  0.00000000000E+00  0.00000000000E+00  0.12500000000E+03  0.12500000000E+03  0.00000000000E+00 0.  1.
         11   -1    0    0    0    0 -0.00000000000E+00 -0.00000000000E+00 -0.12500000000E+03  0.12500000000E+03  0.00000000000E+00 0. -1.
         24    1    1    2    0    0 -0.32814822144E+02  0.82671895320E+02  0.35303388188E+02  0.12500000000E+03  0.80419002446E+02 0.  1.
        -24    1    1    2    0    0  0.32814822144E+02 -0.82671895320E+02 -0.35303388188E+02  0.12500000000E+03  0.80419002446E+02 0. -1.
</event>
<event>
 4    1  0.1699921E-001  0.1250000E+03  0.7546771E-02  0.1126479E+00
        -11   -1    0    0    0    0  0.00000000000E+00  0.00000000000E+00  0.12500000000E+03  0.12500000000E+03  0.00000000000E+00 0.  1.
         11   -1    0    0    0    0 -0.00000000000E+00 -0.00000000000E+00 -0.12500000000E+03  0.12500000000E+03  0.00000000000E+00 0. -1.
         24    1    1    2    0    0  0.27090880063E+02 -0.55817747866E+01  0.91611746263E+02  0.12500000000E+03  0.80419002446E+02 0.  1.
        -24    1    1    2    0    0 -0.27090880063E+02  0.55817747866E+01 -0.91611746263E+02  0.12500000000E+03  0.80419002446E+02 0. -1.
</event>
<event>
 4    1  0.1699921E-001  0.1250000E+03  0.7546771E-02  0.1126479E+00
        -11   -1    0    0    0    0  0.00000000000E+00  0.00000000000E+00  0.12500000000E+03  0.12500000000E+03  0.00000000000E+00 0.  1.
         11   -1    0    0    0    0 -0.00000000000E+00 -0.00000000000E+00 -0.12500000000E+03  0.12500000000E+03  0.00000000000E+00 0. -1.
         24    1    1    2    0    0 -0.49919617499E+02  0.53771575933E+02  0.61436417995E+02  0.12500000000E+03  0.80419002446E+02 0.  1.
        -24    1    1    2    0    0  0.49919617499E+02 -0.53771575933E+02 -0.61436417995E+02  0.12500000000E+03  0.80419002446E+02 0. -1.
</event>
<event>
 4    1  0.1699921E-001  0.1250000E+03  0.7546771E-02  0.1126479E+00
        -11   -1    0    0    0    0  0.00000000000E+00  0.00000000000E+00  0.12500000000E+03  0.12500000000E+03  0.00000000000E+00 0.  1.
         11   -1    0    0    0    0 -0.00000000000E+00 -0.00000000000E+00 -0.12500000000E+03  0.12500000000E+03  0.00000000000E+00 0. -1.
         24    1    1    2    0    0 -0.16430204647E+02  0.33304660968E+02  0.88196553100E+02  0.12500000000E+03  0.80419002446E+02 0.  1.
        -24    1    1    2    0    0  0.16430204647E+02 -0.33304660968E+02 -0.88196553100E+02  0.12500000000E+03  0.80419002446E+02 0. -1.
</event>
<event>
 4    1  0.1699921E-001  0.1250000E+03  0.7546771E-02  0.1126479E+00
        -11   -1    0    0    0    0  0.00000000000E+00  0.00000000000E+00  0.12500000000E+03  0.12500000000E+03  0.00000000000E+00 0.  1.
         11   -1    0    0    0    0 -0.00000000000E+00 -0.00000000000E+00 -0.12500000000E+03  0.12500000000E+03  0.00000000000E+00 0. -1.
         24    1    1    2    0    0  0.36747220168E+02  0.86690441229E+02  0.17093661253E+02  0.12500000000E+03  0.80419002446E+02 0.  1.
        -24    1    1    2    0    0 -0.36747220168E+02 -0.86690441229E+02 -0.17093661253E+02  0.12500000000E+03  0.80419002446E+02 0. -1.
</event>
<event>
 4    1  0.1699921E-001  0.1250000E+03  0.7546771E-02  0.1126479E+00
        -11   -1    0    0    0    0  0.00000000000E+00  0.00000000000E+00  0.12500000000E+03  0.12500000000E+03  0.00000000000E+00 0.  1.
         11   -1    0    0    0    0 -0.00000000000E+00 -0.00000000000E+00 -0.12500000000E+03  0.12500000000E+03  0.00000000000E+00 0. -1.
         24    1    1    2    0    0 -0.27615380509E+01 -0.25459490598E+02  0.92206140206E+02  0.12500000000E+03  0.80419002446E+02 0.  1.
        -24    1    1    2    0    0  0.27615380509E+01  0.25459490598E+02 -0.92206140206E+02  0.12500000000E+03  0.80419002446E+02 0. -1.
</event>
<event>
 4    1  0.1699921E-001  0.1250000E+03  0.7546771E-02  0.1126479E+00
        -11   -1    0    0    0    0  0.00000000000E+00  0.00000000000E+00  0.12500000000E+03  0.12500000000E+03  0.00000000000E+00 0.  1.
         11   -1    0    0    0    0 -0.00000000000E+00 -0.00000000000E+00 -0.12500000000E+03  0.12500000000E+03  0.00000000000E+00 0. -1.
         24    1    1    2    0    0 -0.24268451702E+02  0.19317473261E+02  0.90529892988E+02  0.12500000000E+03  0.80419002446E+02 0.  0.
        -24    1    1    2    0    0  0.24268451702E+02 -0.19317473261E+02 -0.90529892988E+02  0.12500000000E+03  0.80419002446E+02 0.  0.
</event>
<event>
 4    1  0.1699921E-001  0.1250000E+03  0.7546771E-02  0.1126479E+00
        -11   -1    0    0    0    0  0.00000000000E+00  0.00000000000E+00  0.12500000000E+03  0.12500000000E+03  0.00000000000E+00 0.  1.
         11   -1    0    0    0    0 -0.00000000000E+00 -0.00000000000E+00 -0.12500000000E+03  0.12500000000E+03  0.00000000000E+00 0. -1.
         24    1    1    2    0    0  0.47766764796E+02  0.32035979523E+02  0.76484091435E+02  0.12500000000E+03  0.80419002446E+02 0.  0.
        -24    1    1    2    0    0 -0.47766764796E+02 -0.32035979523E+02 -0.76484091435E+02  0.12500000000E+03  0.80419002446E+02 0.  0.
</event>
<event>
 4    1  0.1699921E-001  0.1250000E+03  0.7546771E-02  0.1126479E+00
        -11   -1    0    0    0    0  0.00000000000E+00  0.00000000000E+00  0.12500000000E+03  0.12500000000E+03  0.00000000000E+00 0.  1.
         11   -1    0    0    0    0 -0.00000000000E+00 -0.00000000000E+00 -0.12500000000E+03  0.12500000000E+03  0.00000000000E+00 0. -1.
         24    1    1    2    0    0  0.81395262826E+01  0.15380934459E+02  0.94100791775E+02  0.12500000000E+03  0.80419002446E+02 0.  1.
        -24    1    1    2    0    0 -0.81395262826E+01 -0.15380934459E+02 -0.94100791775E+02  0.12500000000E+03  0.80419002446E+02 0. -1.
</event>
<event>
 4    1  0.1699921E-001  0.1250000E+03  0.7546771E-02  0.1126479E+00
        -11   -1    0    0    0    0  0.00000000000E+00  0.00000000000E+00  0.12500000000E+03  0.12500000000E+03  0.00000000000E+00 0.  1.
         11   -1    0    0    0    0 -0.00000000000E+00 -0.00000000000E+00 -0.12500000000E+03  0.12500000000E+03  0.00000000000E+00 0. -1.
         24    1    1    2    0    0  0.54839797516E+01  0.78300183990E+02  0.54742955700E+02  0.12500000000E+03  0.80419002446E+02 0.  1.
        -24    1    1    2    0    0 -0.54839797516E+01 -0.78300183990E+02 -0.54742955700E+02  0.12500000000E+03  0.80419002446E+02 0. -1.
</event>
<event>
 4    1  0.1699921E-001  0.1250000E+03  0.7546771E-02  0.1126479E+00
        -11   -1    0    0    0    0  0.00000000000E+00  0.00000000000E+00  0.12500000000E+03  0.12500000000E+03  0.00000000000E+00 0.  1.
         11   -1    0    0    0    0 -0.00000000000E+00 -0.00000000000E+00 -0.12500000000E+03  0.12500000000E+03  0.00000000000E+00 0. -1.
         24    1    1    2    0    0  0.93098595259E+01 -0.37094970400E+02  0.87721569367E+02  0.12500000000E+03  0.80419002446E+02 0.  1.
        -24    1    1    2    0    0 -0.93098595259E+01  0.37094970400E+02 -0.87721569367E+02  0.12500000000E+03  0.80419002446E+02 0. -1.
</event>
<event>
 4    1  0.1699921E-001  0.1250000E+03  0.7546771E-02  0.1126479E+00
        -11   -1    0    0    0    0  0.00000000000E+00  0.00000000000E+00  0.12500000000E+03  0.12500000000E+03  0.00000000000E+00 0.  1.
         11   -1    0    0    0    0 -0.00000000000E+00 -0.00000000000E+00 -0.12500000000E+03  0.12500000000E+03  0.00000000000E+00 0. -1.
         24    1    1    2    0    0 -0.48274035027E+01 -0.22382882102E+02  0.92916558319E+02  0.12500000000E+03  0.80419002446E+02 0.  1.
        -24    1    1    2    0    0  0.48274035027E+01  0.22382882102E+02 -0.92916558319E+02  0.12500000000E+03  0.80419002446E+02 0. -1.
</event>
<event>
 4    1  0.1699921E-001  0.1250000E+03  0.7546771E-02  0.1126479E+00
        -11   -1    0    0    0    0  0.00000000000E+00  0.00000000000E+00  0.12500000000E+03  0.12500000000E+03  0.00000000000E+00 0.  1.
         11   -1    0    0    0    0 -0.00000000000E+00 -0.00000000000E+00 -0.12500000000E+03  0.12500000000E+03  0.00000000000E+00 0. -1.
         24    1    1    2    0    0  0.56552964985E+02 -0.62162663852E+02  0.45774986836E+02  0.12500000000E+03  0.80419002446E+02 0.  1.
        -24    1    1    2    0    0 -0.56552964985E+02  0.62162663852E+02 -0.45774986836E+02  0.12500000000E+03  0.80419002446E+02 0. -1.
</event>
<event>
 4    1  0.1699921E-001  0.1250000E+03  0.7546771E-02  0.1126479E+00
        -11   -1    0    0    0    0  0.00000000000E+00  0.00000000000E+00  0.12500000000E+03  0.12500000000E+03  0.00000000000E+00 0.  1.
         11   -1    0    0    0    0 -0.00000000000E+00 -0.00000000000E+00 -0.12500000000E+03  0.12500000000E+03  0.00000000000E+00 0. -1.
         24    1    1    2    0    0 -0.59924489112E+01 -0.27394885627E+02  0.91495326893E+02  0.12500000000E+03  0.80419002446E+02 0.  1.
        -24    1    1    2    0    0  0.59924489112E+01  0.27394885627E+02 -0.91495326893E+02  0.12500000000E+03  0.80419002446E+02 0.  0.
</event>
<event>
 4    1  0.1699921E-001  0.1250000E+03  0.7546771E-02  0.1126479E+00
        -11   -1    0    0    0    0  0.00000000000E+00  0.00000000000E+00  0.12500000000E+03  0.12500000000E+03  0.00000000000E+00 0.  1.
         11   -1    0    0    0    0 -0.00000000000E+00 -0.00000000000E+00 -0.12500000000E+03  0.12500000000E+03  0.00000000000E+00 0. -1.
         24    1    1    2    0    0  0.18540654150E+02 -0.83365616368E+01  0.93512191341E+02  0.12500000000E+03  0.80419002446E+02 0.  1.
        -24    1    1    2    0    0 -0.18540654150E+02  0.83365616368E+01 -0.93512191341E+02  0.12500000000E+03  0.80419002446E+02 0. -1.
</event>
<event>
 4    1  0.1699921E-001  0.1250000E+03  0.7546771E-02  0.1126479E+00
        -11   -1    0    0    0    0  0.00000000000E+00  0.00000000000E+00  0.12500000000E+03  0.12500000000E+03  0.00000000000E+00 0.  1.
         11   -1    0    0    0    0 -0.00000000000E+00 -0.00000000000E+00 -0.12500000000E+03  0.12500000000E+03  0.00000000000E+00 0. -1.
         24    1    1    2    0    0  0.94856606299E+02  0.12309802342E+02 -0.29115379708E+01  0.12500000000E+03  0.80419002446E+02 0. -1.
        -24    1    1    2    0    0 -0.94856606299E+02 -0.12309802342E+02  0.29115379708E+01  0.12500000000E+03  0.80419002446E+02 0.  1.
</event>
<event>
 4    1  0.1699921E-001  0.1250000E+03  0.7546771E-02  0.1126479E+00
        -11   -1    0    0    0    0  0.00000000000E+00  0.00000000000E+00  0.12500000000E+03  0.12500000000E+03  0.00000000000E+00 0.  1.
         11   -1    0    0    0    0 -0.00000000000E+00 -0.00000000000E+00 -0.12500000000E+03  0.12500000000E+03  0.00000000000E+00 0. -1.
         24    1    1    2    0    0  0.81715197503E+01  0.19915404461E+02  0.93243696708E+02  0.12500000000E+03  0.80419002446E+02 0.  1.
        -24    1    1    2    0    0 -0.81715197503E+01 -0.19915404461E+02 -0.93243696708E+02  0.12500000000E+03  0.80419002446E+02 0.  0.
</event>
<event>
 4    1  0.1699921E-001  0.1250000E+03  0.7546771E-02  0.1126479E+00
        -11   -1    0    0    0    0  0.00000000000E+00  0.00000000000E+00  0.12500000000E+03  0.12500000000E+03  0.00000000000E+00 0.  1.
         11   -1    0    0    0    0 -0.00000000000E+00 -0.00000000000E+00 -0.12500000000E+03  0.12500000000E+03  0.00000000000E+00 0. -1.
         24    1    1    2    0    0  0.11687361783E+02 -0.27681731290E+02  0.90856542819E+02  0.12500000000E+03  0.80419002446E+02 0.  1.
        -24    1    1    2    0    0 -0.11687361783E+02  0.27681731290E+02 -0.90856542819E+02  0.12500000000E+03  0.80419002446E+02 0. -1.
</event>
<event>
 4    1  0.1699921E-001  0.1250000E+03  0.7546771E-02  0.1126479E+00
        -11   -1    0    0    0    0  0.00000000000E+00  0.00000000000E+00  0.12500000000E+03  0.12500000000E+03  0.00000000000E+00 0.  1.
         11   -1    0    0    0    0 -0.00000000000E+00 -0.00000000000E+00 -0.12500000000E+03  0.12500000000E+03  0.00000000000E+00 0. -1.
         24    1    1    2    0    0  0.11860581537E+02 -0.35527929188E+02  0.88061778876E+02  0.12500000000E+03  0.80419002446E+02 0.  1.
        -24    1    1    2    0    0 -0.11860581537E+02  0.35527929188E+02 -0.88061778876E+02  0.12500000000E+03  0.80419002446E+02 0. -1.
</event>
<event>
 4    1  0.1699921E-001  0.1250000E+03  0.7546771E-02  0.1126479E+00
        -11   -1    0    0    0    0  0.00000000000E+00  0.00000000000E+00  0.12500000000E+03  0.12500000000E+03  0.00000000000E+00 0.  1.
         11   -1    0    0    0    0 -0.00000000000E+00 -0.00000000000E+00 -0.12500000000E+03  0.12500000000E+03  0.00000000000E+00 0. -1.
         24    1    1    2    0    0 -0.31127447821E+02 -0.23608759486E+02  0.87358414095E+02  0.12500000000E+03  0.80419002446E+02 0.  1.
        -24    1    1    2    0    0  0.31127447821E+02  0.23608759486E+02 -0.87358414095E+02  0.12500000000E+03  0.80419002446E+02 0. -1.
</event>
<event>
 4    1  0.1699921E-001  0.1250000E+03  0.7546771E-02  0.1126479E+00
        -11   -1    0    0    0    0  0.00000000000E+00  0.00000000000E+00  0.12500000000E+03  0.12500000000E+03  0.00000000000E+00 0.  1.
         11   -1    0    0    0    0 -0.00000000000E+00 -0.00000000000E+00 -0.12500000000E+03  0.12500000000E+03  0.00000000000E+00 0. -1.
         24    1    1    2    0    0  0.43481085259E+02 -0.72517046655E+02  0.44815814338E+02  0.12500000000E+03  0.80419002446E+02 0.  1.
        -24    1    1    2    0    0 -0.43481085259E+02  0.72517046655E+02 -0.44815814338E+02  0.12500000000E+03  0.80419002446E+02 0. -1.
</event>
<event>
 4    1  0.1699921E-001  0.1250000E+03  0.7546771E-02  0.1126479E+00
        -11   -1    0    0    0    0  0.00000000000E+00  0.00000000000E+00  0.12500000000E+03  0.12500000000E+03  0.00000000000E+00 0.  1.
         11   -1    0    0    0    0 -0.00000000000E+00 -0.00000000000E+00 -0.12500000000E+03  0.12500000000E+03  0.00000000000E+00 0. -1.
         24    1    1    2    0    0 -0.19234930617E+02  0.44973742977E+02  0.82250616608E+02  0.12500000000E+03  0.80419002446E+02 0.  1.
        -24    1    1    2    0    0  0.19234930617E+02 -0.44973742977E+02 -0.82250616608E+02  0.12500000000E+03  0.80419002446E+02 0. -1.
</event>
<event>
 4    1  0.1699921E-001  0.1250000E+03  0.7546771E-02  0.1126479E+00
        -11   -1    0    0    0    0  0.00000000000E+00  0.00000000000E+00  0.12500000000E+03  0.12500000000E+03  0.00000000000E+00 0.  1.
         11   -1    0    0    0    0 -0.00000000000E+00 -0.00000000000E+00 -0.12500000000E+03  0.12500000000E+03  0.00000000000E+00 0. -1.
         24    1    1    2    0    0 -0.38041022257E+02  0.51155752832E+02  0.71370537503E+02  0.12500000000E+03  0.80419002446E+02 0.  1.
        -24    1    1    2    0    0  0.38041022257E+02 -0.51155752832E+02 -0.71370537503E+02  0.12500000000E+03  0.80419002446E+02 0. -1.
</event>
<event>
 4    1  0.1699921E-001  0.1250000E+03  0.7546771E-02  0.1126479E+00
        -11   -1    0    0    0    0  0.00000000000E+00  0.00000000000E+00  0.12500000000E+03  0.12500000000E+03  0.00000000000E+00 0.  1.
         11   -1    0    0    0    0 -0.00000000000E+00 -0.00000000000E+00 -0.12500000000E+03  0.12500000000E+03  0.00000000000E+00 0. -1.
         24    1    1    2    0    0  0.83934436417E+02  0.42380547166E+02 -0.17795607629E+02  0.12500000000E+03  0.80419002446E+02 0. -1.
        -24    1    1    2    0    0 -0.83934436417E+02 -0.42380547166E+02  0.17795607629E+02  0.12500000000E+03  0.80419002446E+02 0.  1.
</event>
<event>
 4    1  0.1699921E-001  0.1250000E+03  0.7546771E-02  0.1126479E+00
        -11   -1    0    0    0    0  0.00000000000E+00  0.00000000000E+00  0.12500000000E+03  0.12500000000E+03  0.00000000000E+00 0.  1.
         11   -1    0    0    0    0 -0.00000000000E+00 -0.00000000000E+00 -0.12500000000E+03  0.12500000000E+03  0.00000000000E+00 0. -1.
         24    1    1    2    0    0  0.88070647504E+01 -0.23318902804E+02  0.92392902477E+02  0.12500000000E+03  0.80419002446E+02 0.  1.
        -24    1    1    2    0    0 -0.88070647504E+01  0.23318902804E+02 -0.92392902477E+02  0.12500000000E+03  0.80419002446E+02 0. -1.
</event>
<event>
 4    1  0.1699921E-001  0.1250000E+03  0.7546771E-02  0.1126479E+00
        -11   -1    0    0    0    0  0.00000000000E+00  0.00000000000E+00  0.12500000000E+03  0.12500000000E+03  0.00000000000E+00 0.  1.
         11   -1    0    0    0    0 -0.00000000000E+00 -0.00000000000E+00 -0.12500000000E+03  0.12500000000E+03  0.00000000000E+00 0. -1.
         24    1    1    2    0    0  0.66946711465E+02 -0.27962784796E+02  0.62401959393E+02  0.12500000000E+03  0.80419002446E+02 0.  1.
        -24    1    1    2    0    0 -0.66946711465E+02  0.27962784796E+02 -0.62401959393E+02  0.12500000000E+03  0.80419002446E+02 0. -1.
</event>
<event>
 4    1  0.1699921E-001  0.1250000E+03  0.7546771E-02  0.1126479E+00
        -11   -1    0    0    0    0  0.00000000000E+00  0.00000000000E+00  0.12500000000E+03  0.12500000000E+03  0.00000000000E+00 0.  1.
         11   -1    0    0    0    0 -0.00000000000E+00 -0.00000000000E+00 -0.12500000000E+03  0.12500000000E+03  0.00000000000E+00 0. -1.
         24    1    1    2    0    0  0.32998244473E+02 -0.28839017017E+02  0.85071799116E+02  0.12500000000E+03  0.80419002446E+02 0.  1.
        -24    1    1    2    0    0 -0.32998244473E+02  0.28839017017E+02 -0.85071799116E+02  0.12500000000E+03  0.80419002446E+02 0. -1.
</event>
<event>
 4    1  0.1699921E-001  0.1250000E+03  0.7546771E-02  0.1126479E+00
        -11   -1    0    0    0    0  0.00000000000E+00  0.00000000000E+00  0.12500000000E+03  0.12500000000E+03  0.00000000000E+00 0.  1.
         11   -1    0    0    0    0 -0.00000000000E+00 -0.00000000000E+00 -0.12500000000E+03  0.12500000000E+03  0.00000000000E+00 0. -1.
         24    1    1    2    0    0 -0.32788059878E+02  0.22978296914E+02  0.86917921317E+02  0.12500000000E+03  0.80419002446E+02 0.  1.
        -24    1    1    2    0    0  0.32788059878E+02 -0.22978296914E+02 -0.86917921317E+02  0.12500000000E+03  0.80419002446E+02 0. -1.
</event>
<event>
 4    1  0.1699921E-001  0.1250000E+03  0.7546771E-02  0.1126479E+00
        -11   -1    0    0    0    0  0.00000000000E+00  0.00000000000E+00  0.12500000000E+03  0.12500000000E+03  0.00000000000E+00 0.  1.
         11   -1    0    0    0    0 -0.00000000000E+00 -0.00000000000E+00 -0.12500000000E+03  0.12500000000E+03  0.00000000000E+00 0. -1.
         24    1    1    2    0    0  0.14325409792E+02 -0.39772065460E+01  0.94534377387E+02  0.12500000000E+03  0.80419002446E+02 0.  1.
        -24    1    1    2    0    0 -0.14325409792E+02  0.39772065460E+01 -0.94534377387E+02  0.12500000000E+03  0.80419002446E+02 0. -1.
</event>
<event>
 4    1  0.1699921E-001  0.1250000E+03  0.7546771E-02  0.1126479E+00
        -11   -1    0    0    0    0  0.00000000000E+00  0.00000000000E+00  0.12500000000E+03  0.12500000000E+03  0.00000000000E+00 0.  1.
         11   -1    0    0    0    0 -0.00000000000E+00 -0.00000000000E+00 -0.12500000000E+03  0.12500000000E+03  0.00000000000E+00 0. -1.
         24    1    1    2    0    0  0.31708234430E+02  0.38485308782E+02  0.81677738233E+02  0.12500000000E+03  0.80419002446E+02 0.  1.
        -24    1    1    2    0    0 -0.31708234430E+02 -0.38485308782E+02 -0.81677738233E+02  0.12500000000E+03  0.80419002446E+02 0. -1.
</event>
<event>
 4    1  0.1699921E-001  0.1250000E+03  0.7546771E-02  0.1126479E+00
        -11   -1    0    0    0    0  0.00000000000E+00  0.00000000000E+00  0.12500000000E+03  0.12500000000E+03  0.00000000000E+00 0.  1.
         11   -1    0    0    0    0 -0.00000000000E+00 -0.00000000000E+00 -0.12500000000E+03  0.12500000000E+03  0.00000000000E+00 0. -1.
         24    1    1    2    0    0 -0.18911703109E+02 -0.20774878795E+02  0.91479702351E+02  0.12500000000E+03  0.80419002446E+02 0.  1.
        -24    1    1    2    0    0  0.18911703109E+02  0.20774878795E+02 -0.91479702351E+02  0.12500000000E+03  0.80419002446E+02 0. -1.
</event>
<event>
 4    1  0.1699921E-001  0.1250000E+03  0.7546771E-02  0.1126479E+00
        -11   -1    0    0    0    0  0.00000000000E+00  0.00000000000E+00  0.12500000000E+03  0.12500000000E+03  0.00000000000E+00 0.  1.
         11   -1    0    0    0    0 -0.00000000000E+00 -0.00000000000E+00 -0.12500000000E+03  0.12500000000E+03  0.00000000000E+00 0. -1.
         24    1    1    2    0    0  0.17123131647E+02  0.72876234555E+02  0.59612388354E+02  0.12500000000E+03  0.80419002446E+02 0.  1.
        -24    1    1    2    0    0 -0.17123131647E+02 -0.72876234555E+02 -0.59612388354E+02  0.12500000000E+03  0.80419002446E+02 0. -1.
</event>
<event>
 4    1  0.1699921E-001  0.1250000E+03  0.7546771E-02  0.1126479E+00
        -11   -1    0    0    0    0  0.00000000000E+00  0.00000000000E+00  0.12500000000E+03  0.12500000000E+03  0.00000000000E+00 0.  1.
         11   -1    0    0    0    0 -0.00000000000E+00 -0.00000000000E+00 -0.12500000000E+03  0.12500000000E+03  0.00000000000E+00 0. -1.
         24    1    1    2    0    0  0.15614309459E+02  0.23363105387E+02  0.91477552943E+02  0.12500000000E+03  0.80419002446E+02 0.  1.
        -24    1    1    2    0    0 -0.15614309459E+02 -0.23363105387E+02 -0.91477552943E+02  0.12500000000E+03  0.80419002446E+02 0. -1.
</event>
<event>
 4    1  0.1699921E-001  0.1250000E+03  0.7546771E-02  0.1126479E+00
        -11   -1    0    0    0    0  0.00000000000E+00  0.00000000000E+00  0.12500000000E+03  0.12500000000E+03  0.00000000000E+00 0.  1.
         11   -1    0    0    0    0 -0.00000000000E+00 -0.00000000000E+00 -0.12500000000E+03  0.12500000000E+03  0.00000000000E+00 0. -1.
         24    1    1    2    0    0  0.41452217021E+02 -0.12357874410E+02  0.85362642237E+02  0.12500000000E+03  0.80419002446E+02 0.  1.
        -24    1    1    2    0    0 -0.41452217021E+02  0.12357874410E+02 -0.85362642237E+02  0.12500000000E+03  0.80419002446E+02 0. -1.
</event>
<event>
 4    1  0.1699921E-001  0.1250000E+03  0.7546771E-02  0.1126479E+00
        -11   -1    0    0    0    0  0.00000000000E+00  0.00000000000E+00  0.12500000000E+03  0.12500000000E+03  0.00000000000E+00 0.  1.
         11   -1    0    0    0    0 -0.00000000000E+00 -0.00000000000E+00 -0.12500000000E+03  0.12500000000E+03  0.00000000000E+00 0. -1.
         24    1    1    2    0    0 -0.46874239516E+02  0.69337290218E+02  0.46399675652E+02  0.12500000000E+03  0.80419002446E+02 0.  1.
        -24    1    1    2    0    0  0.46874239516E+02 -0.69337290218E+02 -0.46399675652E+02  0.12500000000E+03  0.80419002446E+02 0. -1.
</event>
<event>
 4    1  0.1699921E-001  0.1250000E+03  0.7546771E-02  0.1126479E+00
        -11   -1    0    0    0    0  0.00000000000E+00  0.00000000000E+00  0.12500000000E+03  0.12500000000E+03  0.00000000000E+00 0.  1.
         11   -1    0    0    0    0 -0.00000000000E+00 -0.00000000000E+00 -0.12500000000E+03  0.12500000000E+03  0.00000000000E+00 0. -1.
         24    1    1    2    0    0 -0.17364193197E+01 -0.41341903945E+02  0.86287982198E+02  0.12500000000E+03  0.80419002446E+02 0.  1.
        -24    1    1    2    0    0  0.17364193197E+01  0.41341903945E+02 -0.86287982198E+02  0.12500000000E+03  0.80419002446E+02 0. -1.
</event>
<event>
 4    1  0.1699921E-001  0.1250000E+03  0.7546771E-02  0.1126479E+00
        -11   -1    0    0    0    0  0.00000000000E+00  0.00000000000E+00  0.12500000000E+03  0.12500000000E+03  0.00000000000E+00 0.  1.
         11   -1    0    0    0    0 -0.00000000000E+00 -0.00000000000E+00 -0.12500000000E+03  0.12500000000E+03  0.00000000000E+00 0. -1.
         24    1    1    2    0    0 -0.93828952311E+02  0.39199266940E+01  0.18399617619E+02  0.12500000000E+03  0.80419002446E+02 0.  1.
        -24    1    1    2    0    0  0.93828952311E+02 -0.39199266940E+01 -0.18399617619E+02  0.12500000000E+03  0.80419002446E+02 0.  0.
</event>
<event>
 4    1  0.1699921E-001  0.1250000E+03  0.7546771E-02  0.1126479E+00
        -11   -1    0    0    0    0  0.00000000000E+00  0.00000000000E+00  0.12500000000E+03  0.12500000000E+03  0.00000000000E+00 0.  1.
         11   -1    0    0    0    0 -0.00000000000E+00 -0.00000000000E+00 -0.12500000000E+03  0.12500000000E+03  0.00000000000E+00 0. -1.
         24    1    1    2    0    0 -0.22376562648E+01 -0.37403730942E+02  0.88055311320E+02  0.12500000000E+03  0.80419002446E+02 0.  1.
        -24    1    1    2    0    0  0.22376562648E+01  0.37403730942E+02 -0.88055311320E+02  0.12500000000E+03  0.80419002446E+02 0. -1.
</event>
<event>
 4    1  0.1699921E-001  0.1250000E+03  0.7546771E-02  0.1126479E+00
        -11   -1    0    0    0    0  0.00000000000E+00  0.00000000000E+00  0.12500000000E+03  0.12500000000E+03  0.00000000000E+00 0.  1.
         11   -1    0    0    0    0 -0.00000000000E+00 -0.00000000000E+00 -0.12500000000E+03  0.12500000000E+03  0.00000000000E+00 0. -1.
         24    1    1    2    0    0 -0.31376142322E+02  0.13725847869E+02  0.89358395458E+02  0.12500000000E+03  0.80419002446E+02 0.  1.
        -24    1    1    2    0    0  0.31376142322E+02 -0.13725847869E+02 -0.89358395458E+02  0.12500000000E+03  0.80419002446E+02 0. -1.
</event>
<event>
 4    1  0.1699921E-001  0.1250000E+03  0.7546771E-02  0.1126479E+00
        -11   -1    0    0    0    0  0.00000000000E+00  0.00000000000E+00  0.12500000000E+03  0.12500000000E+03  0.00000000000E+00 0.  1.
         11   -1    0    0    0    0 -0.00000000000E+00 -0.00000000000E+00 -0.12500000000E+03  0.12500000000E+03  0.00000000000E+00 0. -1.
         24    1    1    2    0    0  0.21056539364E+02 -0.91002058817E+02  0.20809408609E+02  0.12500000000E+03  0.80419002446E+02 0.  1.
        -24    1    1    2    0    0 -0.21056539364E+02  0.91002058817E+02 -0.20809408609E+02  0.12500000000E+03  0.80419002446E+02 0. -1.
</event>
<event>
 4    1  0.1699921E-001  0.1250000E+03  0.7546771E-02  0.1126479E+00
        -11   -1    0    0    0    0  0.00000000000E+00  0.00000000000E+00  0.12500000000E+03  0.12500000000E+03  0.00000000000E+00 0.  1.
         11   -1    0    0    0    0 -0.00000000000E+00 -0.00000000000E+00 -0.12500000000E+03  0.12500000000E+03  0.00000000000E+00 0. -1.
         24    1    1    2    0    0  0.75928264109E+02 -0.33645420388E+02 -0.47546487167E+02  0.12500000000E+03  0.80419002446E+02 0. -1.
        -24    1    1    2    0    0 -0.75928264109E+02  0.33645420388E+02  0.47546487167E+02  0.12500000000E+03  0.80419002446E+02 0.  1.
</event>
<event>
 4    1  0.1699921E-001  0.1250000E+03  0.7546771E-02  0.1126479E+00
        -11   -1    0    0    0    0  0.00000000000E+00  0.00000000000E+00  0.12500000000E+03  0.12500000000E+03  0.00000000000E+00 0.  1.
         11   -1    0    0    0    0 -0.00000000000E+00 -0.00000000000E+00 -0.12500000000E+03  0.12500000000E+03  0.00000000000E+00 0. -1.
         24    1    1    2    0    0 -0.67004959439E+02  0.14176219905E+02  0.66836773153E+02  0.12500000000E+03  0.80419002446E+02 0.  1.
        -24    1    1    2    0    0  0.67004959439E+02 -0.14176219905E+02 -0.66836773153E+02  0.12500000000E+03  0.80419002446E+02 0. -1.
</event>
<event>
 4    1  0.1699921E-001  0.1250000E+03  0.7546771E-02  0.1126479E+00
        -11   -1    0    0    0    0  0.00000000000E+00  0.00000000000E+00  0.12500000000E+03  0.12500000000E+03  0.00000000000E+00 0.  1.
         11   -1    0    0    0    0 -0.00000000000E+00 -0.00000000000E+00 -0.12500000000E+03  0.12500000000E+03  0.00000000000E+00 0. -1.
         24    1    1    2    0    0 -0.36742254309E+02 -0.20609044693E+02  0.85924723280E+02  0.12500000000E+03  0.80419002446E+02 0.  1.
        -24    1    1    2    0    0  0.36742254309E+02  0.20609044693E+02 -0.85924723280E+02  0.12500000000E+03  0.80419002446E+02 0. -1.
</event>
<event>
 4    1  0.1699921E-001  0.1250000E+03  0.7546771E-02  0.1126479E+00
        -11   -1    0    0    0    0  0.00000000000E+00  0.00000000000E+00  0.12500000000E+03  0.12500000000E+03  0.00000000000E+00 0.  1.
         11   -1    0    0    0    0 -0.00000000000E+00 -0.00000000000E+00 -0.12500000000E+03  0.12500000000E+03  0.00000000000E+00 0. -1.
         24    1    1    2    0    0  0.39222665641E+02  0.13326636232E+02  0.86265678646E+02  0.12500000000E+03  0.80419002446E+02 0.  1.
        -24    1    1    2    0    0 -0.39222665641E+02 -0.13326636232E+02 -0.86265678646E+02  0.12500000000E+03  0.80419002446E+02 0. -1.
</event>
<event>
 4    1  0.1699921E-001  0.1250000E+03  0.7546771E-02  0.1126479E+00
        -11   -1    0    0    0    0  0.00000000000E+00  0.00000000000E+00  0.12500000000E+03  0.12500000000E+03  0.00000000000E+00 0.  1.
         11   -1    0    0    0    0 -0.00000000000E+00 -0.00000000000E+00 -0.12500000000E+03  0.12500000000E+03  0.00000000000E+00 0. -1.
         24    1    1    2    0    0  0.43555449014E+02 -0.84994359139E+02 -0.60552309170E+01  0.12500000000E+03  0.80419002446E+02 0.  1.
        -24    1    1    2    0    0 -0.43555449014E+02  0.84994359139E+02  0.60552309170E+01  0.12500000000E+03  0.80419002446E+02 0. -1.
</event>
<event>
 4    1  0.1699921E-001  0.1250000E+03  0.7546771E-02  0.1126479E+00
        -11   -1    0    0    0    0  0.00000000000E+00  0.00000000000E+00  0.12500000000E+03  0.12500000000E+03  0.00000000000E+00 0.  1.
         11   -1    0    0    0    0 -0.00000000000E+00 -0.00000000000E+00 -0.12500000000E+03  0.12500000000E+03  0.00000000000E+00 0. -1.
         24    1    1    2    0    0 -0.43362823383E+02  0.46171961964E+02  0.71732834339E+02  0.12500000000E+03  0.80419002446E+02 0.  1.
        -24    1    1    2    0    0  0.43362823383E+02 -0.46171961964E+02 -0.71732834339E+02  0.12500000000E+03  0.80419002446E+02 0. -1.
</event>
<event>
 4    1  0.1699921E-001  0.1250000E+03  0.7546771E-02  0.1126479E+00
        -11   -1    0    0    0    0  0.00000000000E+00  0.00000000000E+00  0.12500000000E+03  0.12500000000E+03  0.00000000000E+00 0.  1.
         11   -1    0    0    0    0 -0.00000000000E+00 -0.00000000000E+00 -0.12500000000E+03  0.12500000000E+03  0.00000000000E+00 0. -1.
         24    1    1    2    0    0  0.37409373446E+02  0.71324520695E+02 -0.51683029822E+02  0.12500000000E+03  0.80419002446E+02 0. -1.
        -24    1    1    2    0    0 -0.37409373446E+02 -0.71324520695E+02  0.51683029822E+02  0.12500000000E+03  0.80419002446E+02 0.  1.
</event>
<event>
 4    1  0.1699921E-001  0.1250000E+03  0.7546771E-02  0.1126479E+00
        -11   -1    0    0    0    0  0.00000000000E+00  0.00000000000E+00  0.12500000000E+03  0.12500000000E+03  0.00000000000E+00 0.  1.
         11   -1    0    0    0    0 -0.00000000000E+00 -0.00000000000E+00 -0.12500000000E+03  0.12500000000E+03  0.00000000000E+00 0. -1.
         24    1    1    2    0    0 -0.31894690943E+01 -0.43652380882E+02  0.85100417014E+02  0.12500000000E+03  0.80419002446E+02 0. -1.
        -24    1    1    2    0    0  0.31894690943E+01  0.43652380882E+02 -0.85100417014E+02  0.12500000000E+03  0.80419002446E+02 0.  0.
</event>
<event>
 4    1  0.1699921E-001  0.1250000E+03  0.7546771E-02  0.1126479E+00
        -11   -1    0    0    0    0  0.00000000000E+00  0.00000000000E+00  0.12500000000E+03  0.12500000000E+03  0.00000000000E+00 0.  1.
         11   -1    0    0    0    0 -0.00000000000E+00 -0.00000000000E+00 -0.12500000000E+03  0.12500000000E+03  0.00000000000E+00 0. -1.
         24    1    1    2    0    0  0.22738281201E+02  0.38899761562E+02  0.84424896589E+02  0.12500000000E+03  0.80419002446E+02 0.  1.
        -24    1    1    2    0    0 -0.22738281201E+02 -0.38899761562E+02 -0.84424896589E+02  0.12500000000E+03  0.80419002446E+02 0. -1.
</event>
<event>
 4    1  0.1699921E-001  0.1250000E+03  0.7546771E-02  0.1126479E+00
        -11   -1    0    0    0    0  0.00000000000E+00  0.00000000000E+00  0.12500000000E+03  0.12500000000E+03  0.00000000000E+00 0.  1.
         11   -1    0    0    0    0 -0.00000000000E+00 -0.00000000000E+00 -0.12500000000E+03  0.12500000000E+03  0.00000000000E+00 0. -1.
         24    1    1    2    0    0 -0.31449892398E+01 -0.14461130342E+02  0.94545062259E+02  0.12500000000E+03  0.80419002446E+02 0.  0.
        -24    1    1    2    0    0  0.31449892398E+01  0.14461130342E+02 -0.94545062259E+02  0.12500000000E+03  0.80419002446E+02 0. -1.
</event>
<event>
 4    1  0.1699921E-001  0.1250000E+03  0.7546771E-02  0.1126479E+00
        -11   -1    0    0    0    0  0.00000000000E+00  0.00000000000E+00  0.12500000000E+03  0.12500000000E+03  0.00000000000E+00 0.  1.
         11   -1    0    0    0    0 -0.00000000000E+00 -0.00000000000E+00 -0.12500000000E+03  0.12500000000E+03  0.00000000000E+00 0. -1.
         24    1    1    2    0    0  0.66101632694E+02 -0.60108879849E+02  0.34282368122E+02  0.12500000000E+03  0.80419002446E+02 0.  1.
        -24    1    1    2    0    0 -0.66101632694E+02  0.60108879849E+02 -0.34282368122E+02  0.12500000000E+03  0.80419002446E+02 0. -1.
</event>
<event>
 4    1  0.1699921E-001  0.1250000E+03  0.7546771E-02  0.1126479E+00
        -11   -1    0    0    0    0  0.00000000000E+00  0.00000000000E+00  0.12500000000E+03  0.12500000000E+03  0.00000000000E+00 0.  1.
         11   -1    0    0    0    0 -0.00000000000E+00 -0.00000000000E+00 -0.12500000000E+03  0.12500000000E+03  0.00000000000E+00 0. -1.
         24    1    1    2    0    0  0.21191856849E+02 -0.29733957990E+02  0.88456661655E+02  0.12500000000E+03  0.80419002446E+02 0.  1.
        -24    1    1    2    0    0 -0.21191856849E+02  0.29733957990E+02 -0.88456661655E+02  0.12500000000E+03  0.80419002446E+02 0. -1.
</event>
<event>
 4    1  0.1699921E-001  0.1250000E+03  0.7546771E-02  0.1126479E+00
        -11   -1    0    0    0    0  0.00000000000E+00  0.00000000000E+00  0.12500000000E+03  0.12500000000E+03  0.00000000000E+00 0.  1.
         11   -1    0    0    0    0 -0.00000000000E+00 -0.00000000000E+00 -0.12500000000E+03  0.12500000000E+03  0.00000000000E+00 0. -1.
         24    1    1    2    0    0 -0.37083081931E+02 -0.18333000895E+02  0.86293279914E+02  0.12500000000E+03  0.80419002446E+02 0.  1.
        -24    1    1    2    0    0  0.37083081931E+02  0.18333000895E+02 -0.86293279914E+02  0.12500000000E+03  0.80419002446E+02 0. -1.
</event>
<event>
 4    1  0.1699921E-001  0.1250000E+03  0.7546771E-02  0.1126479E+00
        -11   -1    0    0    0    0  0.00000000000E+00  0.00000000000E+00  0.12500000000E+03  0.12500000000E+03  0.00000000000E+00 0.  1.
         11   -1    0    0    0    0 -0.00000000000E+00 -0.00000000000E+00 -0.12500000000E+03  0.12500000000E+03  0.00000000000E+00 0. -1.
         24    1    1    2    0    0  0.39674897577E+02  0.35620104145E+02  0.79466311910E+02  0.12500000000E+03  0.80419002446E+02 0.  1.
        -24    1    1    2    0    0 -0.39674897577E+02 -0.35620104145E+02 -0.79466311910E+02  0.12500000000E+03  0.80419002446E+02 0. -1.
</event>
<event>
 4    1  0.1699921E-001  0.1250000E+03  0.7546771E-02  0.1126479E+00
        -11   -1    0    0    0    0  0.00000000000E+00  0.00000000000E+00  0.12500000000E+03  0.12500000000E+03  0.00000000000E+00 0.  1.
         11   -1    0    0    0    0 -0.00000000000E+00 -0.00000000000E+00 -0.12500000000E+03  0.12500000000E+03  0.00000000000E+00 0. -1.
         24    1    1    2    0    0 -0.28405333495E+02  0.28870333131E+02 -0.86703084948E+02  0.12500000000E+03  0.80419002446E+02 0. -1.
        -24    1    1    2    0    0  0.28405333495E+02 -0.28870333131E+02  0.86703084948E+02  0.12500000000E+03  0.80419002446E+02 0.  1.
</event>
<event>
 4    1  0.1699921E-001  0.1250000E+03  0.7546771E-02  0.1126479E+00
        -11   -1    0    0    0    0  0.00000000000E+00  0.00000000000E+00  0.12500000000E+03  0.12500000000E+03  0.00000000000E+00 0.  1.
         11   -1    0    0    0    0 -0.00000000000E+00 -0.00000000000E+00 -0.12500000000E+03  0.12500000000E+03  0.00000000000E+00 0. -1.
         24    1    1    2    0    0 -0.48810201650E+02 -0.59178829219E+02  0.57212013011E+02  0.12500000000E+03  0.80419002446E+02 0.  1.
        -24    1    1    2    0    0  0.48810201650E+02  0.59178829219E+02 -0.57212013011E+02  0.12500000000E+03  0.80419002446E+02 0. -1.
</event>
<event>
 4    1  0.1699921E-001  0.1250000E+03  0.7546771E-02  0.1126479E+00
        -11   -1    0    0    0    0  0.00000000000E+00  0.00000000000E+00  0.12500000000E+03  0.12500000000E+03  0.00000000000E+00 0.  1.
         11   -1    0    0    0    0 -0.00000000000E+00 -0.00000000000E+00 -0.12500000000E+03  0.12500000000E+03  0.00000000000E+00 0. -1.
         24    1    1    2    0    0 -0.91860423795E+02 -0.15593804508E+02  0.21823836664E+02  0.12500000000E+03  0.80419002446E+02 0.  1.
        -24    1    1    2    0    0  0.91860423795E+02  0.15593804508E+02 -0.21823836664E+02  0.12500000000E+03  0.80419002446E+02 0. -1.
</event>
<event>
 4    1  0.1699921E-001  0.1250000E+03  0.7546771E-02  0.1126479E+00
        -11   -1    0    0    0    0  0.00000000000E+00  0.00000000000E+00  0.12500000000E+03  0.12500000000E+03  0.00000000000E+00 0.  1.
         11   -1    0    0    0    0 -0.00000000000E+00 -0.00000000000E+00 -0.12500000000E+03  0.12500000000E+03  0.00000000000E+00 0. -1.
         24    1    1    2    0    0 -0.13735554556E+02 -0.27358442194E+02  0.90667713258E+02  0.12500000000E+03  0.80419002446E+02 0.  1.
        -24    1    1    2    0    0  0.13735554556E+02  0.27358442194E+02 -0.90667713258E+02  0.12500000000E+03  0.80419002446E+02 0. -1.
</event>
<event>
 4    1  0.1699921E-001  0.1250000E+03  0.7546771E-02  0.1126479E+00
        -11   -1    0    0    0    0  0.00000000000E+00  0.00000000000E+00  0.12500000000E+03  0.12500000000E+03  0.00000000000E+00 0.  1.
         11   -1    0    0    0    0 -0.00000000000E+00 -0.00000000000E+00 -0.12500000000E+03  0.12500000000E+03  0.00000000000E+00 0. -1.
         24    1    1    2    0    0  0.21125308492E+02  0.15975450551E+02  0.91958090272E+02  0.12500000000E+03  0.80419002446E+02 0.  1.
        -24    1    1    2    0    0 -0.21125308492E+02 -0.15975450551E+02 -0.91958090272E+02  0.12500000000E+03  0.80419002446E+02 0. -1.
</event>
<event>
 4    1  0.1699921E-001  0.1250000E+03  0.7546771E-02  0.1126479E+00
        -11   -1    0    0    0    0  0.00000000000E+00  0.00000000000E+00  0.12500000000E+03  0.12500000000E+03  0.00000000000E+00 0.  1.
         11   -1    0    0    0    0 -0.00000000000E+00 -0.00000000000E+00 -0.12500000000E+03  0.12500000000E+03  0.00000000000E+00 0. -1.
         24    1    1    2    0    0 -0.38490144153E+01 -0.73630698147E+02  0.61004011541E+02  0.12500000000E+03  0.80419002446E+02 0.  1.
        -24    1    1    2    0    0  0.38490144153E+01  0.73630698147E+02 -0.61004011541E+02  0.12500000000E+03  0.80419002446E+02 0. -1.
</event>
<event>
 4    1  0.1699921E-001  0.1250000E+03  0.7546771E-02  0.1126479E+00
        -11   -1    0    0    0    0  0.00000000000E+00  0.00000000000E+00  0.12500000000E+03  0.12500000000E+03  0.00000000000E+00 0.  1.
         11   -1    0    0    0    0 -0.00000000000E+00 -0.00000000000E+00 -0.12500000000E+03  0.12500000000E+03  0.00000000000E+00 0. -1.
         24    1    1    2    0    0  0.89398132720E+02  0.28727728314E+02 -0.18451979236E+02  0.12500000000E+03  0.80419002446E+02 0.  0.
        -24    1    1    2    0    0 -0.89398132720E+02 -0.28727728314E+02  0.18451979236E+02  0.12500000000E+03  0.80419002446E+02 0. -1.
</event>
<event>
 4    1  0.1699921E-001  0.1250000E+03  0.7546771E-02  0.1126479E+00
        -11   -1    0    0    0    0  0.00000000000E+00  0.00000000000E+00  0.12500000000E+03  0.12500000000E+03  0.00000000000E+00 0.  1.
         11   -1    0    0    0    0 -0.00000000000E+00 -0.00000000000E+00 -0.12500000000E+03  0.12500000000E+03  0.00000000000E+00 0. -1.
         24    1    1    2    0    0  0.49306012575E+01  0.28564501524E+02  0.91200561783E+02  0.12500000000E+03  0.80419002446E+02 0.  0.
        -24    1    1    2    0    0 -0.49306012575E+01 -0.28564501524E+02 -0.91200561783E+02  0.12500000000E+03  0.80419002446E+02 0. -1.
</event>
<event>
 4    1  0.1699921E-001  0.1250000E+03  0.7546771E-02  0.1126479E+00
        -11   -1    0    0    0    0  0.00000000000E+00  0.00000000000E+00  0.12500000000E+03  0.12500000000E+03  0.00000000000E+00 0.  1.
         11   -1    0    0    0    0 -0.00000000000E+00 -0.00000000000E+00 -0.12500000000E+03  0.12500000000E+03  0.00000000000E+00 0. -1.
         24    1    1    2    0    0 -0.25553773743E+01  0.50677845490E+02  0.81135750866E+02  0.12500000000E+03  0.80419002446E+02 0.  1.
        -24    1    1    2    0    0  0.25553773743E+01 -0.50677845490E+02 -0.81135750866E+02  0.12500000000E+03  0.80419002446E+02 0. -1.
</event>
<event>
 4    1  0.1699921E-001  0.1250000E+03  0.7546771E-02  0.1126479E+00
        -11   -1    0    0    0    0  0.00000000000E+00  0.00000000000E+00  0.12500000000E+03  0.12500000000E+03  0.00000000000E+00 0.  1.
         11   -1    0    0    0    0 -0.00000000000E+00 -0.00000000000E+00 -0.12500000000E+03  0.12500000000E+03  0.00000000000E+00 0. -1.
         24    1    1    2    0    0  0.83336403690E+02  0.34250391761E+02  0.32244976816E+02  0.12500000000E+03  0.80419002446E+02 0.  1.
        -24    1    1    2    0    0 -0.83336403690E+02 -0.34250391761E+02 -0.32244976816E+02  0.12500000000E+03  0.80419002446E+02 0. -1.
</event>
<event>
 4    1  0.1699921E-001  0.1250000E+03  0.7546771E-02  0.1126479E+00
        -11   -1    0    0    0    0  0.00000000000E+00  0.00000000000E+00  0.12500000000E+03  0.12500000000E+03  0.00000000000E+00 0.  1.
         11   -1    0    0    0    0 -0.00000000000E+00 -0.00000000000E+00 -0.12500000000E+03  0.12500000000E+03  0.00000000000E+00 0. -1.
         24    1    1    2    0    0  0.42659737036E+02 -0.14826366525E+02  0.84368890815E+02  0.12500000000E+03  0.80419002446E+02 0.  1.
        -24    1    1    2    0    0 -0.42659737036E+02  0.14826366525E+02 -0.84368890815E+02  0.12500000000E+03  0.80419002446E+02 0. -1.
</event>
<event>
 4    1  0.1699921E-001  0.1250000E+03  0.7546771E-02  0.1126479E+00
        -11   -1    0    0    0    0  0.00000000000E+00  0.00000000000E+00  0.12500000000E+03  0.12500000000E+03  0.00000000000E+00 0.  1.
         11   -1    0    0    0    0 -0.00000000000E+00 -0.00000000000E+00 -0.12500000000E+03  0.12500000000E+03  0.00000000000E+00 0. -1.
         24    1    1    2    0    0  0.28335044350E+01 -0.35439073076E+02 -0.88847213787E+02  0.12500000000E+03  0.80419002446E+02 0. -1.
        -24    1    1    2    0    0 -0.28335044350E+01  0.35439073076E+02  0.88847213787E+02  0.12500000000E+03  0.80419002446E+02 0.  1.
</event>
<event>
 4    1  0.1699921E-001  0.1250000E+03  0.7546771E-02  0.1126479E+00
        -11   -1    0    0    0    0  0.00000000000E+00  0.00000000000E+00  0.12500000000E+03  0.12500000000E+03  0.00000000000E+00 0.  1.
         11   -1    0    0    0    0 -0.00000000000E+00 -0.00000000000E+00 -0.12500000000E+03  0.12500000000E+03  0.00000000000E+00 0. -1.
         24    1    1    2    0    0  0.25240250049E+02  0.30128522852E+02  0.87252426521E+02  0.12500000000E+03  0.80419002446E+02 0.  1.
        -24    1    1    2    0    0 -0.25240250049E+02 -0.30128522852E+02 -0.87252426521E+02  0.12500000000E+03  0.80419002446E+02 0. -1.
</event>
<event>
 4    1  0.1699921E-001  0.1250000E+03  0.7546771E-02  0.1126479E+00
        -11   -1    0    0    0    0  0.00000000000E+00  0.00000000000E+00  0.12500000000E+03  0.12500000000E+03  0.00000000000E+00 0.  1.
         11   -1    0    0    0    0 -0.00000000000E+00 -0.00000000000E+00 -0.12500000000E+03  0.12500000000E+03  0.00000000000E+00 0. -1.
         24    1    1    2    0    0 -0.30921137040E+02 -0.36172477638E+01  0.90490788749E+02  0.12500000000E+03  0.80419002446E+02 0.  1.
        -24    1    1    2    0    0  0.30921137040E+02  0.36172477638E+01 -0.90490788749E+02  0.12500000000E+03  0.80419002446E+02 0. -1.
</event>
<event>
 4    1  0.1699921E-001  0.1250000E+03  0.7546771E-02  0.1126479E+00
        -11   -1    0    0    0    0  0.00000000000E+00  0.00000000000E+00  0.12500000000E+03  0.12500000000E+03  0.00000000000E+00 0.  1.
         11   -1    0    0    0    0 -0.00000000000E+00 -0.00000000000E+00 -0.12500000000E+03  0.12500000000E+03  0.00000000000E+00 0. -1.
         24    1    1    2    0    0 -0.15415936388E+02  0.53179615675E+02  0.78051658711E+02  0.12500000000E+03  0.80419002446E+02 0.  1.
        -24    1    1    2    0    0  0.15415936388E+02 -0.53179615675E+02 -0.78051658711E+02  0.12500000000E+03  0.80419002446E+02 0. -1.
</event>
<event>
 4    1  0.1699921E-001  0.1250000E+03  0.7546771E-02  0.1126479E+00
        -11   -1    0    0    0    0  0.00000000000E+00  0.00000000000E+00  0.12500000000E+03  0.12500000000E+03  0.00000000000E+00 0.  1.
         11   -1    0    0    0    0 -0.00000000000E+00 -0.00000000000E+00 -0.12500000000E+03  0.12500000000E+03  0.00000000000E+00 0. -1.
         24    1    1    2    0    0  0.53028789419E+02 -0.78222474165E+02  0.15065725136E+02  0.12500000000E+03  0.80419002446E+02 0.  1.
        -24    1    1    2    0    0 -0.53028789419E+02  0.78222474165E+02 -0.15065725136E+02  0.12500000000E+03  0.80419002446E+02 0. -1.
</event>
<event>
 4    1  0.1699921E-001  0.1250000E+03  0.7546771E-02  0.1126479E+00
        -11   -1    0    0    0    0  0.00000000000E+00  0.00000000000E+00  0.12500000000E+03  0.12500000000E+03  0.00000000000E+00 0.  1.
         11   -1    0    0    0    0 -0.00000000000E+00 -0.00000000000E+00 -0.12500000000E+03  0.12500000000E+03  0.00000000000E+00 0. -1.
         24    1    1    2    0    0 -0.44143394995E+02 -0.12062271859E+02  0.84045501495E+02  0.12500000000E+03  0.80419002446E+02 0.  1.
        -24    1    1    2    0    0  0.44143394995E+02  0.12062271859E+02 -0.84045501495E+02  0.12500000000E+03  0.80419002446E+02 0. -1.
</event>
<event>
 4    1  0.1699921E-001  0.1250000E+03  0.7546771E-02  0.1126479E+00
        -11   -1    0    0    0    0  0.00000000000E+00  0.00000000000E+00  0.12500000000E+03  0.12500000000E+03  0.00000000000E+00 0.  1.
         11   -1    0    0    0    0 -0.00000000000E+00 -0.00000000000E+00 -0.12500000000E+03  0.12500000000E+03  0.00000000000E+00 0. -1.
         24    1    1    2    0    0 -0.20767545063E+02  0.72890190082E+02  0.58425279695E+02  0.12500000000E+03  0.80419002446E+02 0.  1.
        -24    1    1    2    0    0  0.20767545063E+02 -0.72890190082E+02 -0.58425279695E+02  0.12500000000E+03  0.80419002446E+02 0. -1.
</event>
<event>
 4    1  0.1699921E-001  0.1250000E+03  0.7546771E-02  0.1126479E+00
        -11   -1    0    0    0    0  0.00000000000E+00  0.00000000000E+00  0.12500000000E+03  0.12500000000E+03  0.00000000000E+00 0.  1.
         11   -1    0    0    0    0 -0.00000000000E+00 -0.00000000000E+00 -0.12500000000E+03  0.12500000000E+03  0.00000000000E+00 0. -1.
         24    1    1    2    0    0  0.11980059558E+02 -0.35888340414E+01  0.94875615881E+02  0.12500000000E+03  0.80419002446E+02 0.  1.
        -24    1    1    2    0    0 -0.11980059558E+02  0.35888340414E+01 -0.94875615881E+02  0.12500000000E+03  0.80419002446E+02 0. -1.
</event>
<event>
 4    1  0.1699921E-001  0.1250000E+03  0.7546771E-02  0.1126479E+00
        -11   -1    0    0    0    0  0.00000000000E+00  0.00000000000E+00  0.12500000000E+03  0.12500000000E+03  0.00000000000E+00 0.  1.
         11   -1    0    0    0    0 -0.00000000000E+00 -0.00000000000E+00 -0.12500000000E+03  0.12500000000E+03  0.00000000000E+00 0. -1.
         24    1    1    2    0    0 -0.74350142729E+02 -0.18944304628E+02  0.57192251608E+02  0.12500000000E+03  0.80419002446E+02 0.  1.
        -24    1    1    2    0    0  0.74350142729E+02  0.18944304628E+02 -0.57192251608E+02  0.12500000000E+03  0.80419002446E+02 0. -1.
</event>
<event>
 4    1  0.1699921E-001  0.1250000E+03  0.7546771E-02  0.1126479E+00
        -11   -1    0    0    0    0  0.00000000000E+00  0.00000000000E+00  0.12500000000E+03  0.12500000000E+03  0.00000000000E+00 0.  1.
         11   -1    0    0    0    0 -0.00000000000E+00 -0.00000000000E+00 -0.12500000000E+03  0.12500000000E+03  0.00000000000E+00 0. -1.
         24    1    1    2    0    0 -0.92864118009E+01  0.36206875365E+02  0.88094317511E+02  0.12500000000E+03  0.80419002446E+02 0.  1.
        -24    1    1    2    0    0  0.92864118009E+01 -0.36206875365E+02 -0.88094317511E+02  0.12500000000E+03  0.80419002446E+02 0. -1.
</event>
<event>
 4    1  0.1699921E-001  0.1250000E+03  0.7546771E-02  0.1126479E+00
        -11   -1    0    0    0    0  0.00000000000E+00  0.00000000000E+00  0.12500000000E+03  0.12500000000E+03  0.00000000000E+00 0.  1.
         11   -1    0    0    0    0 -0.00000000000E+00 -0.00000000000E+00 -0.12500000000E+03  0.12500000000E+03  0.00000000000E+00 0. -1.
         24    1    1    2    0    0 -0.29379831688E+02  0.10797144185E+02  0.90432467693E+02  0.12500000000E+03  0.80419002446E+02 0.  1.
        -24    1    1    2    0    0  0.29379831688E+02 -0.10797144185E+02 -0.90432467693E+02  0.12500000000E+03  0.80419002446E+02 0. -1.
</event>
<event>
 4    1  0.1699921E-001  0.1250000E+03  0.7546771E-02  0.1126479E+00
        -11   -1    0    0    0    0  0.00000000000E+00  0.00000000000E+00  0.12500000000E+03  0.12500000000E+03  0.00000000000E+00 0.  1.
         11   -1    0    0    0    0 -0.00000000000E+00 -0.00000000000E+00 -0.12500000000E+03  0.12500000000E+03  0.00000000000E+00 0. -1.
         24    1    1    2    0    0  0.46923448620E+02  0.50056643098E+02  0.66710617573E+02  0.12500000000E+03  0.80419002446E+02 0.  1.
        -24    1    1    2    0    0 -0.46923448620E+02 -0.50056643098E+02 -0.66710617573E+02  0.12500000000E+03  0.80419002446E+02 0. -1.
</event>
<event>
 4    1  0.1699921E-001  0.1250000E+03  0.7546771E-02  0.1126479E+00
        -11   -1    0    0    0    0  0.00000000000E+00  0.00000000000E+00  0.12500000000E+03  0.12500000000E+03  0.00000000000E+00 0.  1.
         11   -1    0    0    0    0 -0.00000000000E+00 -0.00000000000E+00 -0.12500000000E+03  0.12500000000E+03  0.00000000000E+00 0. -1.
         24    1    1    2    0    0 -0.58109936819E+02 -0.75754227771E+02  0.65050951809E+01  0.12500000000E+03  0.80419002446E+02 0.  1.
        -24    1    1    2    0    0  0.58109936819E+02  0.75754227771E+02 -0.65050951809E+01  0.12500000000E+03  0.80419002446E+02 0. -1.
</event>
<event>
 4    1  0.1699921E-001  0.1250000E+03  0.7546771E-02  0.1126479E+00
        -11   -1    0    0    0    0  0.00000000000E+00  0.00000000000E+00  0.12500000000E+03  0.12500000000E+03  0.00000000000E+00 0.  1.
         11   -1    0    0    0    0 -0.00000000000E+00 -0.00000000000E+00 -0.12500000000E+03  0.12500000000E+03  0.00000000000E+00 0. -1.
         24    1    1    2    0    0 -0.58590276078E+02 -0.61031013325E+02 -0.44723360868E+02  0.12500000000E+03  0.80419002446E+02 0.  0.
        -24    1    1    2    0    0  0.58590276078E+02  0.61031013325E+02  0.44723360868E+02  0.12500000000E+03  0.80419002446E+02 0.  0.
</event>
<event>
 4    1  0.1699921E-001  0.1250000E+03  0.7546771E-02  0.1126479E+00
        -11   -1    0    0    0    0  0.00000000000E+00  0.00000000000E+00  0.12500000000E+03  0.12500000000E+03  0.00000000000E+00 0.  1.
         11   -1    0    0    0    0 -0.00000000000E+00 -0.00000000000E+00 -0.12500000000E+03  0.12500000000E+03  0.00000000000E+00 0. -1.
         24    1    1    2    0    0  0.16144083409E+02 -0.13143693853E+02  0.93404474884E+02  0.12500000000E+03  0.80419002446E+02 0.  1.
        -24    1    1    2    0    0 -0.16144083409E+02  0.13143693853E+02 -0.93404474884E+02  0.12500000000E+03  0.80419002446E+02 0. -1.
</event>
<event>
 4    1  0.1699921E-001  0.1250000E+03  0.7546771E-02  0.1126479E+00
        -11   -1    0    0    0    0  0.00000000000E+00  0.00000000000E+00  0.12500000000E+03  0.12500000000E+03  0.00000000000E+00 0.  1.
         11   -1    0    0    0    0 -0.00000000000E+00 -0.00000000000E+00 -0.12500000000E+03  0.12500000000E+03  0.00000000000E+00 0. -1.
         24    1    1    2    0    0 -0.24192918677E+02  0.63560591772E+02  0.67324125729E+02  0.12500000000E+03  0.80419002446E+02 0.  1.
        -24    1    1    2    0    0  0.24192918677E+02 -0.63560591772E+02 -0.67324125729E+02  0.12500000000E+03  0.80419002446E+02 0.  0.
</event>
<event>
 4    1  0.1699921E-001  0.1250000E+03  0.7546771E-02  0.1126479E+00
        -11   -1    0    0    0    0  0.00000000000E+00  0.00000000000E+00  0.12500000000E+03  0.12500000000E+03  0.00000000000E+00 0.  1.
         11   -1    0    0    0    0 -0.00000000000E+00 -0.00000000000E+00 -0.12500000000E+03  0.12500000000E+03  0.00000000000E+00 0. -1.
         24    1    1    2    0    0  0.68790974713E+02  0.57243744779E+02  0.33893060165E+02  0.12500000000E+03  0.80419002446E+02 0.  1.
        -24    1    1    2    0    0 -0.68790974713E+02 -0.57243744779E+02 -0.33893060165E+02  0.12500000000E+03  0.80419002446E+02 0. -1.
</event>
<event>
 4    1  0.1699921E-001  0.1250000E+03  0.7546771E-02  0.1126479E+00
        -11   -1    0    0    0    0  0.00000000000E+00  0.00000000000E+00  0.12500000000E+03  0.12500000000E+03  0.00000000000E+00 0.  1.
         11   -1    0    0    0    0 -0.00000000000E+00 -0.00000000000E+00 -0.12500000000E+03  0.12500000000E+03  0.00000000000E+00 0. -1.
         24    1    1    2    0    0  0.38188064986E+02  0.38796611228E+02  0.78703740035E+02  0.12500000000E+03  0.80419002446E+02 0.  1.
        -24    1    1    2    0    0 -0.38188064986E+02 -0.38796611228E+02 -0.78703740035E+02  0.12500000000E+03  0.80419002446E+02 0. -1.
</event>
<event>
 4    1  0.1699921E-001  0.1250000E+03  0.7546771E-02  0.1126479E+00
        -11   -1    0    0    0    0  0.00000000000E+00  0.00000000000E+00  0.12500000000E+03  0.12500000000E+03  0.00000000000E+00 0.  1.
         11   -1    0    0    0    0 -0.00000000000E+00 -0.00000000000E+00 -0.12500000000E+03  0.12500000000E+03  0.00000000000E+00 0. -1.
         24    1    1    2    0    0 -0.67986789382E+01  0.32307085065E+02  0.89821012380E+02  0.12500000000E+03  0.80419002446E+02 0.  1.
        -24    1    1    2    0    0  0.67986789382E+01 -0.32307085065E+02 -0.89821012380E+02  0.12500000000E+03  0.80419002446E+02 0. -1.
</event>
<event>
 4    1  0.1699921E-001  0.1250000E+03  0.7546771E-02  0.1126479E+00
        -11   -1    0    0    0    0  0.00000000000E+00  0.00000000000E+00  0.12500000000E+03  0.12500000000E+03  0.00000000000E+00 0.  1.
         11   -1    0    0    0    0 -0.00000000000E+00 -0.00000000000E+00 -0.12500000000E+03  0.12500000000E+03  0.00000000000E+00 0. -1.
         24    1    1    2    0    0  0.59519023117E+02  0.43209837652E+02 -0.61222380409E+02  0.12500000000E+03  0.80419002446E+02 0.  0.
        -24    1    1    2    0    0 -0.59519023117E+02 -0.43209837652E+02  0.61222380409E+02  0.12500000000E+03  0.80419002446E+02 0.  0.
</event>
<event>
 4    1  0.1699921E-001  0.1250000E+03  0.7546771E-02  0.1126479E+00
        -11   -1    0    0    0    0  0.00000000000E+00  0.00000000000E+00  0.12500000000E+03  0.12500000000E+03  0.00000000000E+00 0.  1.
         11   -1    0    0    0    0 -0.00000000000E+00 -0.00000000000E+00 -0.12500000000E+03  0.12500000000E+03  0.00000000000E+00 0. -1.
         24    1    1    2    0    0 -0.20579105096E+02  0.87939397029E+02  0.31637745324E+02  0.12500000000E+03  0.80419002446E+02 0.  1.
        -24    1    1    2    0    0  0.20579105096E+02 -0.87939397029E+02 -0.31637745324E+02  0.12500000000E+03  0.80419002446E+02 0. -1.
</event>
<event>
 4    1  0.1699921E-001  0.1250000E+03  0.7546771E-02  0.1126479E+00
        -11   -1    0    0    0    0  0.00000000000E+00  0.00000000000E+00  0.12500000000E+03  0.12500000000E+03  0.00000000000E+00 0.  1.
         11   -1    0    0    0    0 -0.00000000000E+00 -0.00000000000E+00 -0.12500000000E+03  0.12500000000E+03  0.00000000000E+00 0. -1.
         24    1    1    2    0    0  0.32851340520E+02 -0.13768285378E+02  0.88820086632E+02  0.12500000000E+03  0.80419002446E+02 0.  1.
        -24    1    1    2    0    0 -0.32851340520E+02  0.13768285378E+02 -0.88820086632E+02  0.12500000000E+03  0.80419002446E+02 0. -1.
</event>
<event>
 4    1  0.1699921E-001  0.1250000E+03  0.7546771E-02  0.1126479E+00
        -11   -1    0    0    0    0  0.00000000000E+00  0.00000000000E+00  0.12500000000E+03  0.12500000000E+03  0.00000000000E+00 0.  1.
         11   -1    0    0    0    0 -0.00000000000E+00 -0.00000000000E+00 -0.12500000000E+03  0.12500000000E+03  0.00000000000E+00 0. -1.
         24    1    1    2    0    0 -0.32496215205E+02  0.11517324750E+02  0.89269990890E+02  0.12500000000E+03  0.80419002446E+02 0.  1.
        -24    1    1    2    0    0  0.32496215205E+02 -0.11517324750E+02 -0.89269990890E+02  0.12500000000E+03  0.80419002446E+02 0. -1.
</event>
<event>
 4    1  0.1699921E-001  0.1250000E+03  0.7546771E-02  0.1126479E+00
        -11   -1    0    0    0    0  0.00000000000E+00  0.00000000000E+00  0.12500000000E+03  0.12500000000E+03  0.00000000000E+00 0.  1.
         11   -1    0    0    0    0 -0.00000000000E+00 -0.00000000000E+00 -0.12500000000E+03  0.12500000000E+03  0.00000000000E+00 0. -1.
         24    1    1    2    0    0  0.40571240017E+02  0.72053173720E+02  0.48167402732E+02  0.12500000000E+03  0.80419002446E+02 0.  0.
        -24    1    1    2    0    0 -0.40571240017E+02 -0.72053173720E+02 -0.48167402732E+02  0.12500000000E+03  0.80419002446E+02 0.  1.
</event>
<event>
 4    1  0.1699921E-001  0.1250000E+03  0.7546771E-02  0.1126479E+00
        -11   -1    0    0    0    0  0.00000000000E+00  0.00000000000E+00  0.12500000000E+03  0.12500000000E+03  0.00000000000E+00 0. -1.
         11   -1    0    0    0    0 -0.00000000000E+00 -0.00000000000E+00 -0.12500000000E+03  0.12500000000E+03  0.00000000000E+00 0.  1.
         24    1    1    2    0    0 -0.12125562862E+02 -0.51475497737E+02  0.79756052457E+02  0.12500000000E+03  0.80419002446E+02 0.  0.
        -24    1    1    2    0    0  0.12125562862E+02  0.51475497737E+02 -0.79756052457E+02  0.12500000000E+03  0.80419002446E+02 0.  0.
</event>
<event>
 4    1  0.1699921E-001  0.1250000E+03  0.7546771E-02  0.1126479E+00
        -11   -1    0    0    0    0  0.00000000000E+00  0.00000000000E+00  0.12500000000E+03  0.12500000000E+03  0.00000000000E+00 0.  1.
         11   -1    0    0    0    0 -0.00000000000E+00 -0.00000000000E+00 -0.12500000000E+03  0.12500000000E+03  0.00000000000E+00 0. -1.
         24    1    1    2    0    0  0.42989505596E+02  0.11272644383E+02  0.84750303497E+02  0.12500000000E+03  0.80419002446E+02 0.  1.
        -24    1    1    2    0    0 -0.42989505596E+02 -0.11272644383E+02 -0.84750303497E+02  0.12500000000E+03  0.80419002446E+02 0. -1.
</event>
<event>
 4    1  0.1699921E-001  0.1250000E+03  0.7546771E-02  0.1126479E+00
        -11   -1    0    0    0    0  0.00000000000E+00  0.00000000000E+00  0.12500000000E+03  0.12500000000E+03  0.00000000000E+00 0.  1.
         11   -1    0    0    0    0 -0.00000000000E+00 -0.00000000000E+00 -0.12500000000E+03  0.12500000000E+03  0.00000000000E+00 0. -1.
         24    1    1    2    0    0  0.94788870506E+01 -0.80773318624E+01  0.94882513963E+02  0.12500000000E+03  0.80419002446E+02 0.  1.
        -24    1    1    2    0    0 -0.94788870506E+01  0.80773318624E+01 -0.94882513963E+02  0.12500000000E+03  0.80419002446E+02 0. -1.
</event>
<event>
 4    1  0.1699921E-001  0.1250000E+03  0.7546771E-02  0.1126479E+00
        -11   -1    0    0    0    0  0.00000000000E+00  0.00000000000E+00  0.12500000000E+03  0.12500000000E+03  0.00000000000E+00 0.  1.
         11   -1    0    0    0    0 -0.00000000000E+00 -0.00000000000E+00 -0.12500000000E+03  0.12500000000E+03  0.00000000000E+00 0. -1.
         24    1    1    2    0    0  0.94344075931E+02 -0.16030492164E+02  0.51994295849E-01  0.12500000000E+03  0.80419002446E+02 0.  1.
        -24    1    1    2    0    0 -0.94344075931E+02  0.16030492164E+02 -0.51994295849E-01  0.12500000000E+03  0.80419002446E+02 0.  0.
</event>
<event>
 4    1  0.1699921E-001  0.1250000E+03  0.7546771E-02  0.1126479E+00
        -11   -1    0    0    0    0  0.00000000000E+00  0.00000000000E+00  0.12500000000E+03  0.12500000000E+03  0.00000000000E+00 0.  1.
         11   -1    0    0    0    0 -0.00000000000E+00 -0.00000000000E+00 -0.12500000000E+03  0.12500000000E+03  0.00000000000E+00 0. -1.
         24    1    1    2    0    0 -0.18757193065E+02  0.62811656314E+01  0.93629582463E+02  0.12500000000E+03  0.80419002446E+02 0.  1.
        -24    1    1    2    0    0  0.18757193065E+02 -0.62811656314E+01 -0.93629582463E+02  0.12500000000E+03  0.80419002446E+02 0. -1.
</event>
<event>
 4    1  0.1699921E-001  0.1250000E+03  0.7546771E-02  0.1126479E+00
        -11   -1    0    0    0    0  0.00000000000E+00  0.00000000000E+00  0.12500000000E+03  0.12500000000E+03  0.00000000000E+00 0.  1.
         11   -1    0    0    0    0 -0.00000000000E+00 -0.00000000000E+00 -0.12500000000E+03  0.12500000000E+03  0.00000000000E+00 0. -1.
         24    1    1    2    0    0  0.13861369287E+02  0.27438123391E+02  0.90624477223E+02  0.12500000000E+03  0.80419002446E+02 0.  0.
        -24    1    1    2    0    0 -0.13861369287E+02 -0.27438123391E+02 -0.90624477223E+02  0.12500000000E+03  0.80419002446E+02 0. -1.
</event>
<event>
 4    1  0.1699921E-001  0.1250000E+03  0.7546771E-02  0.1126479E+00
        -11   -1    0    0    0    0  0.00000000000E+00  0.00000000000E+00  0.12500000000E+03  0.12500000000E+03  0.00000000000E+00 0. -1.
         11   -1    0    0    0    0 -0.00000000000E+00 -0.00000000000E+00 -0.12500000000E+03  0.12500000000E+03  0.00000000000E+00 0.  1.
         24    1    1    2    0    0 -0.92277130893E+02 -0.55479899110E+01 -0.24737319331E+02  0.12500000000E+03  0.80419002446E+02 0.  0.
        -24    1    1    2    0    0  0.92277130893E+02  0.55479899110E+01  0.24737319331E+02  0.12500000000E+03  0.80419002446E+02 0.  0.
</event>
<event>
 4    1  0.1699921E-001  0.1250000E+03  0.7546771E-02  0.1126479E+00
        -11   -1    0    0    0    0  0.00000000000E+00  0.00000000000E+00  0.12500000000E+03  0.12500000000E+03  0.00000000000E+00 0.  1.
         11   -1    0    0    0    0 -0.00000000000E+00 -0.00000000000E+00 -0.12500000000E+03  0.12500000000E+03  0.00000000000E+00 0. -1.
         24    1    1    2    0    0 -0.14381168382E+02  0.38429782713E+01  0.94531463332E+02  0.12500000000E+03  0.80419002446E+02 0.  1.
        -24    1    1    2    0    0  0.14381168382E+02 -0.38429782713E+01 -0.94531463332E+02  0.12500000000E+03  0.80419002446E+02 0. -1.
</event>
<event>
 4    1  0.1699921E-001  0.1250000E+03  0.7546771E-02  0.1126479E+00
        -11   -1    0    0    0    0  0.00000000000E+00  0.00000000000E+00  0.12500000000E+03  0.12500000000E+03  0.00000000000E+00 0.  1.
         11   -1    0    0    0    0 -0.00000000000E+00 -0.00000000000E+00 -0.12500000000E+03  0.12500000000E+03  0.00000000000E+00 0. -1.
         24    1    1    2    0    0  0.19398075928E+02  0.42767423487E+02  0.83381329950E+02  0.12500000000E+03  0.80419002446E+02 0.  1.
        -24    1    1    2    0    0 -0.19398075928E+02 -0.42767423487E+02 -0.83381329950E+02  0.12500000000E+03  0.80419002446E+02 0.  1.
</event>
<event>
 4    1  0.1699921E-001  0.1250000E+03  0.7546771E-02  0.1126479E+00
        -11   -1    0    0    0    0  0.00000000000E+00  0.00000000000E+00  0.12500000000E+03  0.12500000000E+03  0.00000000000E+00 0.  1.
         11   -1    0    0    0    0 -0.00000000000E+00 -0.00000000000E+00 -0.12500000000E+03  0.12500000000E+03  0.00000000000E+00 0. -1.
         24    1    1    2    0    0 -0.52788931046E+00 -0.57042508432E+00  0.95693155417E+02  0.12500000000E+03  0.80419002446E+02 0.  0.
        -24    1    1    2    0    0  0.52788931046E+00  0.57042508432E+00 -0.95693155417E+02  0.12500000000E+03  0.80419002446E+02 0. -1.
</event>
<event>
 4    1  0.1699921E-001  0.1250000E+03  0.7546771E-02  0.1126479E+00
        -11   -1    0    0    0    0  0.00000000000E+00  0.00000000000E+00  0.12500000000E+03  0.12500000000E+03  0.00000000000E+00 0.  1.
         11   -1    0    0    0    0 -0.00000000000E+00 -0.00000000000E+00 -0.12500000000E+03  0.12500000000E+03  0.00000000000E+00 0. -1.
         24    1    1    2    0    0 -0.24118141511E+02 -0.46347509807E+02  0.80174856597E+02  0.12500000000E+03  0.80419002446E+02 0.  1.
        -24    1    1    2    0    0  0.24118141511E+02  0.46347509807E+02 -0.80174856597E+02  0.12500000000E+03  0.80419002446E+02 0. -1.
</event>
<event>
 4    1  0.1699921E-001  0.1250000E+03  0.7546771E-02  0.1126479E+00
        -11   -1    0    0    0    0  0.00000000000E+00  0.00000000000E+00  0.12500000000E+03  0.12500000000E+03  0.00000000000E+00 0.  1.
         11   -1    0    0    0    0 -0.00000000000E+00 -0.00000000000E+00 -0.12500000000E+03  0.12500000000E+03  0.00000000000E+00 0. -1.
         24    1    1    2    0    0  0.21944247370E+01  0.52295355837E+02  0.80113446459E+02  0.12500000000E+03  0.80419002446E+02 0.  1.
        -24    1    1    2    0    0 -0.21944247370E+01 -0.52295355837E+02 -0.80113446459E+02  0.12500000000E+03  0.80419002446E+02 0. -1.
</event>
<event>
 4    1  0.1699921E-001  0.1250000E+03  0.7546771E-02  0.1126479E+00
        -11   -1    0    0    0    0  0.00000000000E+00  0.00000000000E+00  0.12500000000E+03  0.12500000000E+03  0.00000000000E+00 0.  1.
         11   -1    0    0    0    0 -0.00000000000E+00 -0.00000000000E+00 -0.12500000000E+03  0.12500000000E+03  0.00000000000E+00 0. -1.
         24    1    1    2    0    0  0.25405968230E+02 -0.64771168285E+02  0.65704007358E+02  0.12500000000E+03  0.80419002446E+02 0. -1.
        -24    1    1    2    0    0 -0.25405968230E+02  0.64771168285E+02 -0.65704007358E+02  0.12500000000E+03  0.80419002446E+02 0.  1.
</event>
<event>
 4    1  0.1699921E-001  0.1250000E+03  0.7546771E-02  0.1126479E+00
        -11   -1    0    0    0    0  0.00000000000E+00  0.00000000000E+00  0.12500000000E+03  0.12500000000E+03  0.00000000000E+00 0.  1.
         11   -1    0    0    0    0 -0.00000000000E+00 -0.00000000000E+00 -0.12500000000E+03  0.12500000000E+03  0.00000000000E+00 0. -1.
         24    1    1    2    0    0 -0.11800844230E+02 -0.79836998963E+01  0.94629723962E+02  0.12500000000E+03  0.80419002446E+02 0.  1.
        -24    1    1    2    0    0  0.11800844230E+02  0.79836998963E+01 -0.94629723962E+02  0.12500000000E+03  0.80419002446E+02 0. -1.
</event>
<event>
 4    1  0.1699921E-001  0.1250000E+03  0.7546771E-02  0.1126479E+00
        -11   -1    0    0    0    0  0.00000000000E+00  0.00000000000E+00  0.12500000000E+03  0.12500000000E+03  0.00000000000E+00 0.  1.
         11   -1    0    0    0    0 -0.00000000000E+00 -0.00000000000E+00 -0.12500000000E+03  0.12500000000E+03  0.00000000000E+00 0. -1.
         24    1    1    2    0    0  0.48166404840E+02  0.32875036418E+02  0.75874985805E+02  0.12500000000E+03  0.80419002446E+02 0.  1.
        -24    1    1    2    0    0 -0.48166404840E+02 -0.32875036418E+02 -0.75874985805E+02  0.12500000000E+03  0.80419002446E+02 0. -1.
</event>
<event>
 4    1  0.1699921E-001  0.1250000E+03  0.7546771E-02  0.1126479E+00
        -11   -1    0    0    0    0  0.00000000000E+00  0.00000000000E+00  0.12500000000E+03  0.12500000000E+03  0.00000000000E+00 0.  1.
         11   -1    0    0    0    0 -0.00000000000E+00 -0.00000000000E+00 -0.12500000000E+03  0.12500000000E+03  0.00000000000E+00 0. -1.
         24    1    1    2    0    0  0.49213800983E+02 -0.30190154443E+02  0.76317366393E+02  0.12500000000E+03  0.80419002446E+02 0.  1.
        -24    1    1    2    0    0 -0.49213800983E+02  0.30190154443E+02 -0.76317366393E+02  0.12500000000E+03  0.80419002446E+02 0. -1.
</event>
<event>
 4    1  0.1699921E-001  0.1250000E+03  0.7546771E-02  0.1126479E+00
        -11   -1    0    0    0    0  0.00000000000E+00  0.00000000000E+00  0.12500000000E+03  0.12500000000E+03  0.00000000000E+00 0.  1.
         11   -1    0    0    0    0 -0.00000000000E+00 -0.00000000000E+00 -0.12500000000E+03  0.12500000000E+03  0.00000000000E+00 0. -1.
         24    1    1    2    0    0  0.24186069692E+02  0.91617873964E+02 -0.13378462125E+02  0.12500000000E+03  0.80419002446E+02 0.  1.
        -24    1    1    2    0    0 -0.24186069692E+02 -0.91617873964E+02  0.13378462125E+02  0.12500000000E+03  0.80419002446E+02 0. -1.
</event>
<event>
 4    1  0.1699921E-001  0.1250000E+03  0.7546771E-02  0.1126479E+00
        -11   -1    0    0    0    0  0.00000000000E+00  0.00000000000E+00  0.12500000000E+03  0.12500000000E+03  0.00000000000E+00 0.  1.
         11   -1    0    0    0    0 -0.00000000000E+00 -0.00000000000E+00 -0.12500000000E+03  0.12500000000E+03  0.00000000000E+00 0. -1.
         24    1    1    2    0    0 -0.79227684044E+01  0.10419977051E+02  0.94796824128E+02  0.12500000000E+03  0.80419002446E+02 0.  0.
        -24    1    1    2    0    0  0.79227684044E+01 -0.10419977051E+02 -0.94796824128E+02  0.12500000000E+03  0.80419002446E+02 0. -1.
</event>
<event>
 4    1  0.1699921E-001  0.1250000E+03  0.7546771E-02  0.1126479E+00
        -11   -1    0    0    0    0  0.00000000000E+00  0.00000000000E+00  0.12500000000E+03  0.12500000000E+03  0.00000000000E+00 0.  1.
         11   -1    0    0    0    0 -0.00000000000E+00 -0.00000000000E+00 -0.12500000000E+03  0.12500000000E+03  0.00000000000E+00 0. -1.
         24    1    1    2    0    0 -0.75274507284E+02 -0.99967925271E+01  0.58237416992E+02  0.12500000000E+03  0.80419002446E+02 0. -1.
        -24    1    1    2    0    0  0.75274507284E+02  0.99967925271E+01 -0.58237416992E+02  0.12500000000E+03  0.80419002446E+02 0.  0.
</event>
<event>
 4    1  0.1699921E-001  0.1250000E+03  0.7546771E-02  0.1126479E+00
        -11   -1    0    0    0    0  0.00000000000E+00  0.00000000000E+00  0.12500000000E+03  0.12500000000E+03  0.00000000000E+00 0.  1.
         11   -1    0    0    0    0 -0.00000000000E+00 -0.00000000000E+00 -0.12500000000E+03  0.12500000000E+03  0.00000000000E+00 0. -1.
         24    1    1    2    0    0 -0.25122281302E+01 -0.11152366253E+02  0.95011038740E+02  0.12500000000E+03  0.80419002446E+02 0.  1.
        -24    1    1    2    0    0  0.25122281302E+01  0.11152366253E+02 -0.95011038740E+02  0.12500000000E+03  0.80419002446E+02 0.  0.
</event>
<event>
 4    1  0.1699921E-001  0.1250000E+03  0.7546771E-02  0.1126479E+00
        -11   -1    0    0    0    0  0.00000000000E+00  0.00000000000E+00  0.12500000000E+03  0.12500000000E+03  0.00000000000E+00 0.  1.
         11   -1    0    0    0    0 -0.00000000000E+00 -0.00000000000E+00 -0.12500000000E+03  0.12500000000E+03  0.00000000000E+00 0. -1.
         24    1    1    2    0    0  0.16147787833E+02  0.53261471691E+02  0.77847598724E+02  0.12500000000E+03  0.80419002446E+02 0.  1.
        -24    1    1    2    0    0 -0.16147787833E+02 -0.53261471691E+02 -0.77847598724E+02  0.12500000000E+03  0.80419002446E+02 0. -1.
</event>
<event>
 4    1  0.1699921E-001  0.1250000E+03  0.7546771E-02  0.1126479E+00
        -11   -1    0    0    0    0  0.00000000000E+00  0.00000000000E+00  0.12500000000E+03  0.12500000000E+03  0.00000000000E+00 0.  1.
         11   -1    0    0    0    0 -0.00000000000E+00 -0.00000000000E+00 -0.12500000000E+03  0.12500000000E+03  0.00000000000E+00 0. -1.
         24    1    1    2    0    0  0.16947833229E+02 -0.24569290418E+02  0.90922521758E+02  0.12500000000E+03  0.80419002446E+02 0.  1.
        -24    1    1    2    0    0 -0.16947833229E+02  0.24569290418E+02 -0.90922521758E+02  0.12500000000E+03  0.80419002446E+02 0. -1.
</event>
<event>
 4    1  0.1699921E-001  0.1250000E+03  0.7546771E-02  0.1126479E+00
        -11   -1    0    0    0    0  0.00000000000E+00  0.00000000000E+00  0.12500000000E+03  0.12500000000E+03  0.00000000000E+00 0.  1.
         11   -1    0    0    0    0 -0.00000000000E+00 -0.00000000000E+00 -0.12500000000E+03  0.12500000000E+03  0.00000000000E+00 0. -1.
         24    1    1    2    0    0 -0.32861438272E+02 -0.80116856679E+02  0.40733268911E+02  0.12500000000E+03  0.80419002446E+02 0.  1.
        -24    1    1    2    0    0  0.32861438272E+02  0.80116856679E+02 -0.40733268911E+02  0.12500000000E+03  0.80419002446E+02 0.  0.
</event>
<event>
 4    1  0.1699921E-001  0.1250000E+03  0.7546771E-02  0.1126479E+00
        -11   -1    0    0    0    0  0.00000000000E+00  0.00000000000E+00  0.12500000000E+03  0.12500000000E+03  0.00000000000E+00 0.  1.
         11   -1    0    0    0    0 -0.00000000000E+00 -0.00000000000E+00 -0.12500000000E+03  0.12500000000E+03  0.00000000000E+00 0. -1.
         24    1    1    2    0    0 -0.48674022489E+02 -0.55701454345E+02  0.60712202762E+02  0.12500000000E+03  0.80419002446E+02 0.  1.
        -24    1    1    2    0    0  0.48674022489E+02  0.55701454345E+02 -0.60712202762E+02  0.12500000000E+03  0.80419002446E+02 0. -1.
</event>
<event>
 4    1  0.1699921E-001  0.1250000E+03  0.7546771E-02  0.1126479E+00
        -11   -1    0    0    0    0  0.00000000000E+00  0.00000000000E+00  0.12500000000E+03  0.12500000000E+03  0.00000000000E+00 0.  1.
         11   -1    0    0    0    0 -0.00000000000E+00 -0.00000000000E+00 -0.12500000000E+03  0.12500000000E+03  0.00000000000E+00 0. -1.
         24    1    1    2    0    0 -0.22433361248E+02  0.92731692119E+02  0.74405393281E+01  0.12500000000E+03  0.80419002446E+02 0. -1.
        -24    1    1    2    0    0  0.22433361248E+02 -0.92731692119E+02 -0.74405393281E+01  0.12500000000E+03  0.80419002446E+02 0.  1.
</event>
<event>
 4    1  0.1699921E-001  0.1250000E+03  0.7546771E-02  0.1126479E+00
        -11   -1    0    0    0    0  0.00000000000E+00  0.00000000000E+00  0.12500000000E+03  0.12500000000E+03  0.00000000000E+00 0.  1.
         11   -1    0    0    0    0 -0.00000000000E+00 -0.00000000000E+00 -0.12500000000E+03  0.12500000000E+03  0.00000000000E+00 0. -1.
         24    1    1    2    0    0 -0.43832653351E+01 -0.74926272297E+02  0.59368550179E+02  0.12500000000E+03  0.80419002446E+02 0.  1.
        -24    1    1    2    0    0  0.43832653351E+01  0.74926272297E+02 -0.59368550179E+02  0.12500000000E+03  0.80419002446E+02 0. -1.
</event>
<event>
 4    1  0.1699921E-001  0.1250000E+03  0.7546771E-02  0.1126479E+00
        -11   -1    0    0    0    0  0.00000000000E+00  0.00000000000E+00  0.12500000000E+03  0.12500000000E+03  0.00000000000E+00 0.  1.
         11   -1    0    0    0    0 -0.00000000000E+00 -0.00000000000E+00 -0.12500000000E+03  0.12500000000E+03  0.00000000000E+00 0. -1.
         24    1    1    2    0    0 -0.24050231049E+02 -0.88015296190E+02 -0.28856161712E+02  0.12500000000E+03  0.80419002446E+02 0. -1.
        -24    1    1    2    0    0  0.24050231049E+02  0.88015296190E+02  0.28856161712E+02  0.12500000000E+03  0.80419002446E+02 0.  1.
</event>
<event>
 4    1  0.1699921E-001  0.1250000E+03  0.7546771E-02  0.1126479E+00
        -11   -1    0    0    0    0  0.00000000000E+00  0.00000000000E+00  0.12500000000E+03  0.12500000000E+03  0.00000000000E+00 0.  1.
         11   -1    0    0    0    0 -0.00000000000E+00 -0.00000000000E+00 -0.12500000000E+03  0.12500000000E+03  0.00000000000E+00 0. -1.
         24    1    1    2    0    0  0.35939880773E+02 -0.25163114582E+01  0.88655384452E+02  0.12500000000E+03  0.80419002446E+02 0.  1.
        -24    1    1    2    0    0 -0.35939880773E+02  0.25163114582E+01 -0.88655384452E+02  0.12500000000E+03  0.80419002446E+02 0. -1.
</event>
<event>
 4    1  0.1699921E-001  0.1250000E+03  0.7546771E-02  0.1126479E+00
        -11   -1    0    0    0    0  0.00000000000E+00  0.00000000000E+00  0.12500000000E+03  0.12500000000E+03  0.00000000000E+00 0.  1.
         11   -1    0    0    0    0 -0.00000000000E+00 -0.00000000000E+00 -0.12500000000E+03  0.12500000000E+03  0.00000000000E+00 0. -1.
         24    1    1    2    0    0  0.16396512396E+02 -0.90536903685E+02  0.26306035392E+02  0.12500000000E+03  0.80419002446E+02 0.  0.
        -24    1    1    2    0    0 -0.16396512396E+02  0.90536903685E+02 -0.26306035392E+02  0.12500000000E+03  0.80419002446E+02 0.  1.
</event>
<event>
 4    1  0.1699921E-001  0.1250000E+03  0.7546771E-02  0.1126479E+00
        -11   -1    0    0    0    0  0.00000000000E+00  0.00000000000E+00  0.12500000000E+03  0.12500000000E+03  0.00000000000E+00 0.  1.
         11   -1    0    0    0    0 -0.00000000000E+00 -0.00000000000E+00 -0.12500000000E+03  0.12500000000E+03  0.00000000000E+00 0. -1.
         24    1    1    2    0    0 -0.46032854631E+02 -0.21244952853E+02  0.81162875247E+02  0.12500000000E+03  0.80419002446E+02 0.  1.
        -24    1    1    2    0    0  0.46032854631E+02  0.21244952853E+02 -0.81162875247E+02  0.12500000000E+03  0.80419002446E+02 0. -1.
</event>
<event>
 4    1  0.1699921E-001  0.1250000E+03  0.7546771E-02  0.1126479E+00
        -11   -1    0    0    0    0  0.00000000000E+00  0.00000000000E+00  0.12500000000E+03  0.12500000000E+03  0.00000000000E+00 0.  1.
         11   -1    0    0    0    0 -0.00000000000E+00 -0.00000000000E+00 -0.12500000000E+03  0.12500000000E+03  0.00000000000E+00 0. -1.
         24    1    1    2    0    0  0.94103832546E+02  0.16146525718E+02 -0.64453435202E+01  0.12500000000E+03  0.80419002446E+02 0.  1.
        -24    1    1    2    0    0 -0.94103832546E+02 -0.16146525718E+02  0.64453435202E+01  0.12500000000E+03  0.80419002446E+02 0.  0.
</event>
<event>
 4    1  0.1699921E-001  0.1250000E+03  0.7546771E-02  0.1126479E+00
        -11   -1    0    0    0    0  0.00000000000E+00  0.00000000000E+00  0.12500000000E+03  0.12500000000E+03  0.00000000000E+00 0.  1.
         11   -1    0    0    0    0 -0.00000000000E+00 -0.00000000000E+00 -0.12500000000E+03  0.12500000000E+03  0.00000000000E+00 0. -1.
         24    1    1    2    0    0 -0.13518628039E+02 -0.34907702802E+02  0.88070897728E+02  0.12500000000E+03  0.80419002446E+02 0.  1.
        -24    1    1    2    0    0  0.13518628039E+02  0.34907702802E+02 -0.88070897728E+02  0.12500000000E+03  0.80419002446E+02 0. -1.
</event>
<event>
 4    1  0.1699921E-001  0.1250000E+03  0.7546771E-02  0.1126479E+00
        -11   -1    0    0    0    0  0.00000000000E+00  0.00000000000E+00  0.12500000000E+03  0.12500000000E+03  0.00000000000E+00 0.  1.
         11   -1    0    0    0    0 -0.00000000000E+00 -0.00000000000E+00 -0.12500000000E+03  0.12500000000E+03  0.00000000000E+00 0. -1.
         24    1    1    2    0    0  0.50584752024E+02  0.76038131899E+01  0.80877369723E+02  0.12500000000E+03  0.80419002446E+02 0.  1.
        -24    1    1    2    0    0 -0.50584752024E+02 -0.76038131899E+01 -0.80877369723E+02  0.12500000000E+03  0.80419002446E+02 0. -1.
</event>
<event>
 4    1  0.1699921E-001  0.1250000E+03  0.7546771E-02  0.1126479E+00
        -11   -1    0    0    0    0  0.00000000000E+00  0.00000000000E+00  0.12500000000E+03  0.12500000000E+03  0.00000000000E+00 0.  1.
         11   -1    0    0    0    0 -0.00000000000E+00 -0.00000000000E+00 -0.12500000000E+03  0.12500000000E+03  0.00000000000E+00 0. -1.
         24    1    1    2    0    0  0.13820237661E+01  0.35596933352E+02  0.88818536308E+02  0.12500000000E+03  0.80419002446E+02 0.  1.
        -24    1    1    2    0    0 -0.13820237661E+01 -0.35596933352E+02 -0.88818536308E+02  0.12500000000E+03  0.80419002446E+02 0. -1.
</event>
<event>
 4    1  0.1699921E-001  0.1250000E+03  0.7546771E-02  0.1126479E+00
        -11   -1    0    0    0    0  0.00000000000E+00  0.00000000000E+00  0.12500000000E+03  0.12500000000E+03  0.00000000000E+00 0.  1.
         11   -1    0    0    0    0 -0.00000000000E+00 -0.00000000000E+00 -0.12500000000E+03  0.12500000000E+03  0.00000000000E+00 0. -1.
         24    1    1    2    0    0 -0.58226764439E+02  0.37577169386E+02  0.65995335362E+02  0.12500000000E+03  0.80419002446E+02 0.  1.
        -24    1    1    2    0    0  0.58226764439E+02 -0.37577169386E+02 -0.65995335362E+02  0.12500000000E+03  0.80419002446E+02 0. -1.
</event>
<event>
 4    1  0.1699921E-001  0.1250000E+03  0.7546771E-02  0.1126479E+00
        -11   -1    0    0    0    0  0.00000000000E+00  0.00000000000E+00  0.12500000000E+03  0.12500000000E+03  0.00000000000E+00 0.  1.
         11   -1    0    0    0    0 -0.00000000000E+00 -0.00000000000E+00 -0.12500000000E+03  0.12500000000E+03  0.00000000000E+00 0. -1.
         24    1    1    2    0    0  0.60099592744E+02 -0.49816096963E+02  0.55355031217E+02  0.12500000000E+03  0.80419002446E+02 0.  0.
        -24    1    1    2    0    0 -0.60099592744E+02  0.49816096963E+02 -0.55355031217E+02  0.12500000000E+03  0.80419002446E+02 0. -1.
</event>
<event>
 4    1  0.1699921E-001  0.1250000E+03  0.7546771E-02  0.1126479E+00
        -11   -1    0    0    0    0  0.00000000000E+00  0.00000000000E+00  0.12500000000E+03  0.12500000000E+03  0.00000000000E+00 0.  1.
         11   -1    0    0    0    0 -0.00000000000E+00 -0.00000000000E+00 -0.12500000000E+03  0.12500000000E+03  0.00000000000E+00 0. -1.
         24    1    1    2    0    0  0.28236723960E+01  0.75538596853E+01  0.95355912893E+02  0.12500000000E+03  0.80419002446E+02 0.  1.
        -24    1    1    2    0    0 -0.28236723960E+01 -0.75538596853E+01 -0.95355912893E+02  0.12500000000E+03  0.80419002446E+02 0. -1.
</event>
<event>
 4    1  0.1699921E-001  0.1250000E+03  0.7546771E-02  0.1126479E+00
        -11   -1    0    0    0    0  0.00000000000E+00  0.00000000000E+00  0.12500000000E+03  0.12500000000E+03  0.00000000000E+00 0.  1.
         11   -1    0    0    0    0 -0.00000000000E+00 -0.00000000000E+00 -0.12500000000E+03  0.12500000000E+03  0.00000000000E+00 0. -1.
         24    1    1    2    0    0 -0.77672974805E+02 -0.21265209847E+02  0.51696072199E+02  0.12500000000E+03  0.80419002446E+02 0.  1.
        -24    1    1    2    0    0  0.77672974805E+02  0.21265209847E+02 -0.51696072199E+02  0.12500000000E+03  0.80419002446E+02 0. -1.
</event>
<event>
 4    1  0.1699921E-001  0.1250000E+03  0.7546771E-02  0.1126479E+00
        -11   -1    0    0    0    0  0.00000000000E+00  0.00000000000E+00  0.12500000000E+03  0.12500000000E+03  0.00000000000E+00 0.  1.
         11   -1    0    0    0    0 -0.00000000000E+00 -0.00000000000E+00 -0.12500000000E+03  0.12500000000E+03  0.00000000000E+00 0. -1.
         24    1    1    2    0    0  0.11915242537E+02 -0.52408945948E+02  0.79177733142E+02  0.12500000000E+03  0.80419002446E+02 0.  1.
        -24    1    1    2    0    0 -0.11915242537E+02  0.52408945948E+02 -0.79177733142E+02  0.12500000000E+03  0.80419002446E+02 0. -1.
</event>
<event>
 4    1  0.1699921E-001  0.1250000E+03  0.7546771E-02  0.1126479E+00
        -11   -1    0    0    0    0  0.00000000000E+00  0.00000000000E+00  0.12500000000E+03  0.12500000000E+03  0.00000000000E+00 0.  1.
         11   -1    0    0    0    0 -0.00000000000E+00 -0.00000000000E+00 -0.12500000000E+03  0.12500000000E+03  0.00000000000E+00 0. -1.
         24    1    1    2    0    0 -0.56095043679E+02 -0.51678467063E+02  0.57796766020E+02  0.12500000000E+03  0.80419002446E+02 0.  1.
        -24    1    1    2    0    0  0.56095043679E+02  0.51678467063E+02 -0.57796766020E+02  0.12500000000E+03  0.80419002446E+02 0. -1.
</event>
<event>
 4    1  0.1699921E-001  0.1250000E+03  0.7546771E-02  0.1126479E+00
        -11   -1    0    0    0    0  0.00000000000E+00  0.00000000000E+00  0.12500000000E+03  0.12500000000E+03  0.00000000000E+00 0.  1.
         11   -1    0    0    0    0 -0.00000000000E+00 -0.00000000000E+00 -0.12500000000E+03  0.12500000000E+03  0.00000000000E+00 0. -1.
         24    1    1    2    0    0 -0.54595823901E+02  0.58701686747E+02  0.52260807794E+02  0.12500000000E+03  0.80419002446E+02 0.  1.
        -24    1    1    2    0    0  0.54595823901E+02 -0.58701686747E+02 -0.52260807794E+02  0.12500000000E+03  0.80419002446E+02 0.  0.
</event>
<event>
 4    1  0.1699921E-001  0.1250000E+03  0.7546771E-02  0.1126479E+00
        -11   -1    0    0    0    0  0.00000000000E+00  0.00000000000E+00  0.12500000000E+03  0.12500000000E+03  0.00000000000E+00 0.  1.
         11   -1    0    0    0    0 -0.00000000000E+00 -0.00000000000E+00 -0.12500000000E+03  0.12500000000E+03  0.00000000000E+00 0. -1.
         24    1    1    2    0    0  0.17051356144E+02  0.54645048105E+02  0.76687378472E+02  0.12500000000E+03  0.80419002446E+02 0.  1.
        -24    1    1    2    0    0 -0.17051356144E+02 -0.54645048105E+02 -0.76687378472E+02  0.12500000000E+03  0.80419002446E+02 0. -1.
</event>
<event>
 4    1  0.1699921E-001  0.1250000E+03  0.7546771E-02  0.1126479E+00
        -11   -1    0    0    0    0  0.00000000000E+00  0.00000000000E+00  0.12500000000E+03  0.12500000000E+03  0.00000000000E+00 0.  1.
         11   -1    0    0    0    0 -0.00000000000E+00 -0.00000000000E+00 -0.12500000000E+03  0.12500000000E+03  0.00000000000E+00 0. -1.
         24    1    1    2    0    0 -0.59969037070E+02  0.48944100486E+02  0.56266985578E+02  0.12500000000E+03  0.80419002446E+02 0.  1.
        -24    1    1    2    0    0  0.59969037070E+02 -0.48944100486E+02 -0.56266985578E+02  0.12500000000E+03  0.80419002446E+02 0.  0.
</event>
<event>
 4    1  0.1699921E-001  0.1250000E+03  0.7546771E-02  0.1126479E+00
        -11   -1    0    0    0    0  0.00000000000E+00  0.00000000000E+00  0.12500000000E+03  0.12500000000E+03  0.00000000000E+00 0.  1.
         11   -1    0    0    0    0 -0.00000000000E+00 -0.00000000000E+00 -0.12500000000E+03  0.12500000000E+03  0.00000000000E+00 0. -1.
         24    1    1    2    0    0 -0.14730870476E+02 -0.46329729073E+01  0.94442157232E+02  0.12500000000E+03  0.80419002446E+02 0.  1.
        -24    1    1    2    0    0  0.14730870476E+02  0.46329729073E+01 -0.94442157232E+02  0.12500000000E+03  0.80419002446E+02 0. -1.
</event>
<event>
 4    1  0.1699921E-001  0.1250000E+03  0.7546771E-02  0.1126479E+00
        -11   -1    0    0    0    0  0.00000000000E+00  0.00000000000E+00  0.12500000000E+03  0.12500000000E+03  0.00000000000E+00 0.  1.
         11   -1    0    0    0    0 -0.00000000000E+00 -0.00000000000E+00 -0.12500000000E+03  0.12500000000E+03  0.00000000000E+00 0. -1.
         24    1    1    2    0    0  0.44410602184E+02  0.46133184371E+02  0.71114075674E+02  0.12500000000E+03  0.80419002446E+02 0.  1.
        -24    1    1    2    0    0 -0.44410602184E+02 -0.46133184371E+02 -0.71114075674E+02  0.12500000000E+03  0.80419002446E+02 0. -1.
</event>
<event>
 4    1  0.1699921E-001  0.1250000E+03  0.7546771E-02  0.1126479E+00
        -11   -1    0    0    0    0  0.00000000000E+00  0.00000000000E+00  0.12500000000E+03  0.12500000000E+03  0.00000000000E+00 0.  1.
         11   -1    0    0    0    0 -0.00000000000E+00 -0.00000000000E+00 -0.12500000000E+03  0.12500000000E+03  0.00000000000E+00 0. -1.
         24    1    1    2    0    0  0.25315056826E+02  0.51632539894E+02  0.76491913086E+02  0.12500000000E+03  0.80419002446E+02 0.  1.
        -24    1    1    2    0    0 -0.25315056826E+02 -0.51632539894E+02 -0.76491913086E+02  0.12500000000E+03  0.80419002446E+02 0. -1.
</event>
<event>
 4    1  0.1699921E-001  0.1250000E+03  0.7546771E-02  0.1126479E+00
        -11   -1    0    0    0    0  0.00000000000E+00  0.00000000000E+00  0.12500000000E+03  0.12500000000E+03  0.00000000000E+00 0.  1.
         11   -1    0    0    0    0 -0.00000000000E+00 -0.00000000000E+00 -0.12500000000E+03  0.12500000000E+03  0.00000000000E+00 0. -1.
         24    1    1    2    0    0  0.47370978265E+02 -0.34235694183E+02  0.75773951380E+02  0.12500000000E+03  0.80419002446E+02 0.  1.
        -24    1    1    2    0    0 -0.47370978265E+02  0.34235694183E+02 -0.75773951380E+02  0.12500000000E+03  0.80419002446E+02 0. -1.
</event>
<event>
 4    1  0.1699921E-001  0.1250000E+03  0.7546771E-02  0.1126479E+00
        -11   -1    0    0    0    0  0.00000000000E+00  0.00000000000E+00  0.12500000000E+03  0.12500000000E+03  0.00000000000E+00 0.  1.
         11   -1    0    0    0    0 -0.00000000000E+00 -0.00000000000E+00 -0.12500000000E+03  0.12500000000E+03  0.00000000000E+00 0. -1.
         24    1    1    2    0    0 -0.57057317949E+00 -0.49773504779E+02  0.81731613920E+02  0.12500000000E+03  0.80419002446E+02 0.  1.
        -24    1    1    2    0    0  0.57057317949E+00  0.49773504779E+02 -0.81731613920E+02  0.12500000000E+03  0.80419002446E+02 0. -1.
</event>
<event>
 4    1  0.1699921E-001  0.1250000E+03  0.7546771E-02  0.1126479E+00
        -11   -1    0    0    0    0  0.00000000000E+00  0.00000000000E+00  0.12500000000E+03  0.12500000000E+03  0.00000000000E+00 0.  1.
         11   -1    0    0    0    0 -0.00000000000E+00 -0.00000000000E+00 -0.12500000000E+03  0.12500000000E+03  0.00000000000E+00 0. -1.
         24    1    1    2    0    0  0.33315211178E+02 -0.82272471011E+02  0.35764804815E+02  0.12500000000E+03  0.80419002446E+02 0.  1.
        -24    1    1    2    0    0 -0.33315211178E+02  0.82272471011E+02 -0.35764804815E+02  0.12500000000E+03  0.80419002446E+02 0.  0.
</event>
<event>
 4    1  0.1699921E-001  0.1250000E+03  0.7546771E-02  0.1126479E+00
        -11   -1    0    0    0    0  0.00000000000E+00  0.00000000000E+00  0.12500000000E+03  0.12500000000E+03  0.00000000000E+00 0.  1.
         11   -1    0    0    0    0 -0.00000000000E+00 -0.00000000000E+00 -0.12500000000E+03  0.12500000000E+03  0.00000000000E+00 0. -1.
         24    1    1    2    0    0 -0.27444201151E+02 -0.16124937358E+01  0.91662422686E+02  0.12500000000E+03  0.80419002446E+02 0.  1.
        -24    1    1    2    0    0  0.27444201151E+02  0.16124937358E+01 -0.91662422686E+02  0.12500000000E+03  0.80419002446E+02 0. -1.
</event>
<event>
 4    1  0.1699921E-001  0.1250000E+03  0.7546771E-02  0.1126479E+00
        -11   -1    0    0    0    0  0.00000000000E+00  0.00000000000E+00  0.12500000000E+03  0.12500000000E+03  0.00000000000E+00 0.  1.
         11   -1    0    0    0    0 -0.00000000000E+00 -0.00000000000E+00 -0.12500000000E+03  0.12500000000E+03  0.00000000000E+00 0. -1.
         24    1    1    2    0    0 -0.33413540327E+01 -0.51933384691E+02  0.80309046522E+02  0.12500000000E+03  0.80419002446E+02 0.  1.
        -24    1    1    2    0    0  0.33413540327E+01  0.51933384691E+02 -0.80309046522E+02  0.12500000000E+03  0.80419002446E+02 0. -1.
</event>
<event>
 4    1  0.1699921E-001  0.1250000E+03  0.7546771E-02  0.1126479E+00
        -11   -1    0    0    0    0  0.00000000000E+00  0.00000000000E+00  0.12500000000E+03  0.12500000000E+03  0.00000000000E+00 0.  1.
         11   -1    0    0    0    0 -0.00000000000E+00 -0.00000000000E+00 -0.12500000000E+03  0.12500000000E+03  0.00000000000E+00 0. -1.
         24    1    1    2    0    0  0.70916017693E+02  0.26055200375E+02  0.58735245072E+02  0.12500000000E+03  0.80419002446E+02 0.  1.
        -24    1    1    2    0    0 -0.70916017693E+02 -0.26055200375E+02 -0.58735245072E+02  0.12500000000E+03  0.80419002446E+02 0. -1.
</event>
<event>
 4    1  0.1699921E-001  0.1250000E+03  0.7546771E-02  0.1126479E+00
        -11   -1    0    0    0    0  0.00000000000E+00  0.00000000000E+00  0.12500000000E+03  0.12500000000E+03  0.00000000000E+00 0.  1.
         11   -1    0    0    0    0 -0.00000000000E+00 -0.00000000000E+00 -0.12500000000E+03  0.12500000000E+03  0.00000000000E+00 0. -1.
         24    1    1    2    0    0  0.36731871274E+02  0.24972458182E+02  0.84763966464E+02  0.12500000000E+03  0.80419002446E+02 0.  1.
        -24    1    1    2    0    0 -0.36731871274E+02 -0.24972458182E+02 -0.84763966464E+02  0.12500000000E+03  0.80419002446E+02 0. -1.
</event>
<event>
 4    1  0.1699921E-001  0.1250000E+03  0.7546771E-02  0.1126479E+00
        -11   -1    0    0    0    0  0.00000000000E+00  0.00000000000E+00  0.12500000000E+03  0.12500000000E+03  0.00000000000E+00 0.  1.
         11   -1    0    0    0    0 -0.00000000000E+00 -0.00000000000E+00 -0.12500000000E+03  0.12500000000E+03  0.00000000000E+00 0. -1.
         24    1    1    2    0    0 -0.83676545599E+02 -0.43748565054E+02 -0.15559010828E+02  0.12500000000E+03  0.80419002446E+02 0.  1.
        -24    1    1    2    0    0  0.83676545599E+02  0.43748565054E+02  0.15559010828E+02  0.12500000000E+03  0.80419002446E+02 0.  0.
</event>
<event>
 4    1  0.1699921E-001  0.1250000E+03  0.7546771E-02  0.1126479E+00
        -11   -1    0    0    0    0  0.00000000000E+00  0.00000000000E+00  0.12500000000E+03  0.12500000000E+03  0.00000000000E+00 0.  1.
         11   -1    0    0    0    0 -0.00000000000E+00 -0.00000000000E+00 -0.12500000000E+03  0.12500000000E+03  0.00000000000E+00 0. -1.
         24    1    1    2    0    0 -0.75074574466E+02  0.15713066425E+02  0.57224923398E+02  0.12500000000E+03  0.80419002446E+02 0.  1.
        -24    1    1    2    0    0  0.75074574466E+02 -0.15713066425E+02 -0.57224923398E+02  0.12500000000E+03  0.80419002446E+02 0. -1.
</event>
<event>
 4    1  0.1699921E-001  0.1250000E+03  0.7546771E-02  0.1126479E+00
        -11   -1    0    0    0    0  0.00000000000E+00  0.00000000000E+00  0.12500000000E+03  0.12500000000E+03  0.00000000000E+00 0.  1.
         11   -1    0    0    0    0 -0.00000000000E+00 -0.00000000000E+00 -0.12500000000E+03  0.12500000000E+03  0.00000000000E+00 0. -1.
         24    1    1    2    0    0  0.18362289848E+02 -0.44758027118E+02  0.82567120367E+02  0.12500000000E+03  0.80419002446E+02 0.  1.
        -24    1    1    2    0    0 -0.18362289848E+02  0.44758027118E+02 -0.82567120367E+02  0.12500000000E+03  0.80419002446E+02 0. -1.
</event>
<event>
 4    1  0.1699921E-001  0.1250000E+03  0.7546771E-02  0.1126479E+00
        -11   -1    0    0    0    0  0.00000000000E+00  0.00000000000E+00  0.12500000000E+03  0.12500000000E+03  0.00000000000E+00 0.  1.
         11   -1    0    0    0    0 -0.00000000000E+00 -0.00000000000E+00 -0.12500000000E+03  0.12500000000E+03  0.00000000000E+00 0. -1.
         24    1    1    2    0    0 -0.75435451652E+00 -0.58177323902E+00  0.95691569821E+02  0.12500000000E+03  0.80419002446E+02 0.  0.
        -24    1    1    2    0    0  0.75435451652E+00  0.58177323902E+00 -0.95691569821E+02  0.12500000000E+03  0.80419002446E+02 0. -1.
</event>
<event>
 4    1  0.1699921E-001  0.1250000E+03  0.7546771E-02  0.1126479E+00
        -11   -1    0    0    0    0  0.00000000000E+00  0.00000000000E+00  0.12500000000E+03  0.12500000000E+03  0.00000000000E+00 0.  1.
         11   -1    0    0    0    0 -0.00000000000E+00 -0.00000000000E+00 -0.12500000000E+03  0.12500000000E+03  0.00000000000E+00 0. -1.
         24    1    1    2    0    0 -0.19639075130E+02 -0.49900088468E+02  0.79259522737E+02  0.12500000000E+03  0.80419002446E+02 0.  1.
        -24    1    1    2    0    0  0.19639075130E+02  0.49900088468E+02 -0.79259522737E+02  0.12500000000E+03  0.80419002446E+02 0. -1.
</event>
<event>
 4    1  0.1699921E-001  0.1250000E+03  0.7546771E-02  0.1126479E+00
        -11   -1    0    0    0    0  0.00000000000E+00  0.00000000000E+00  0.12500000000E+03  0.12500000000E+03  0.00000000000E+00 0.  1.
         11   -1    0    0    0    0 -0.00000000000E+00 -0.00000000000E+00 -0.12500000000E+03  0.12500000000E+03  0.00000000000E+00 0. -1.
         24    1    1    2    0    0  0.28630716848E+02 -0.73301946263E+02  0.54450810577E+02  0.12500000000E+03  0.80419002446E+02 0.  1.
        -24    1    1    2    0    0 -0.28630716848E+02  0.73301946263E+02 -0.54450810577E+02  0.12500000000E+03  0.80419002446E+02 0. -1.
</event>
<event>
 4    1  0.1699921E-001  0.1250000E+03  0.7546771E-02  0.1126479E+00
        -11   -1    0    0    0    0  0.00000000000E+00  0.00000000000E+00  0.12500000000E+03  0.12500000000E+03  0.00000000000E+00 0.  1.
         11   -1    0    0    0    0 -0.00000000000E+00 -0.00000000000E+00 -0.12500000000E+03  0.12500000000E+03  0.00000000000E+00 0. -1.
         24    1    1    2    0    0 -0.11457168384E+02  0.11511396904E+02  0.94308032954E+02  0.12500000000E+03  0.80419002446E+02 0.  1.
        -24    1    1    2    0    0  0.11457168384E+02 -0.11511396904E+02 -0.94308032954E+02  0.12500000000E+03  0.80419002446E+02 0. -1.
</event>
<event>
 4    1  0.1699921E-001  0.1250000E+03  0.7546771E-02  0.1126479E+00
        -11   -1    0    0    0    0  0.00000000000E+00  0.00000000000E+00  0.12500000000E+03  0.12500000000E+03  0.00000000000E+00 0.  1.
         11   -1    0    0    0    0 -0.00000000000E+00 -0.00000000000E+00 -0.12500000000E+03  0.12500000000E+03  0.00000000000E+00 0. -1.
         24    1    1    2    0    0 -0.73963750446E+01 -0.19951478639E+02  0.93300676214E+02  0.12500000000E+03  0.80419002446E+02 0.  1.
        -24    1    1    2    0    0  0.73963750446E+01  0.19951478639E+02 -0.93300676214E+02  0.12500000000E+03  0.80419002446E+02 0. -1.
</event>
<event>
 4    1  0.1699921E-001  0.1250000E+03  0.7546771E-02  0.1126479E+00
        -11   -1    0    0    0    0  0.00000000000E+00  0.00000000000E+00  0.12500000000E+03  0.12500000000E+03  0.00000000000E+00 0.  1.
         11   -1    0    0    0    0 -0.00000000000E+00 -0.00000000000E+00 -0.12500000000E+03  0.12500000000E+03  0.00000000000E+00 0. -1.
         24    1    1    2    0    0 -0.55894442129E+02 -0.18009537395E+02  0.75559592029E+02  0.12500000000E+03  0.80419002446E+02 0.  1.
        -24    1    1    2    0    0  0.55894442129E+02  0.18009537395E+02 -0.75559592029E+02  0.12500000000E+03  0.80419002446E+02 0. -1.
</event>
<event>
 4    1  0.1699921E-001  0.1250000E+03  0.7546771E-02  0.1126479E+00
        -11   -1    0    0    0    0  0.00000000000E+00  0.00000000000E+00  0.12500000000E+03  0.12500000000E+03  0.00000000000E+00 0.  1.
         11   -1    0    0    0    0 -0.00000000000E+00 -0.00000000000E+00 -0.12500000000E+03  0.12500000000E+03  0.00000000000E+00 0. -1.
         24    1    1    2    0    0  0.29698143159E+00 -0.11046343770E+02  0.95056163067E+02  0.12500000000E+03  0.80419002446E+02 0.  1.
        -24    1    1    2    0    0 -0.29698143159E+00  0.11046343770E+02 -0.95056163067E+02  0.12500000000E+03  0.80419002446E+02 0.  0.
</event>
<event>
 4    1  0.1699921E-001  0.1250000E+03  0.7546771E-02  0.1126479E+00
        -11   -1    0    0    0    0  0.00000000000E+00  0.00000000000E+00  0.12500000000E+03  0.12500000000E+03  0.00000000000E+00 0.  1.
         11   -1    0    0    0    0 -0.00000000000E+00 -0.00000000000E+00 -0.12500000000E+03  0.12500000000E+03  0.00000000000E+00 0. -1.
         24    1    1    2    0    0  0.82760891881E+01  0.87394269665E+01  0.94936361894E+02  0.12500000000E+03  0.80419002446E+02 0.  1.
        -24    1    1    2    0    0 -0.82760891881E+01 -0.87394269665E+01 -0.94936361894E+02  0.12500000000E+03  0.80419002446E+02 0.  0.
</event>
<event>
 4    1  0.1699921E-001  0.1250000E+03  0.7546771E-02  0.1126479E+00
        -11   -1    0    0    0    0  0.00000000000E+00  0.00000000000E+00  0.12500000000E+03  0.12500000000E+03  0.00000000000E+00 0.  1.
         11   -1    0    0    0    0 -0.00000000000E+00 -0.00000000000E+00 -0.12500000000E+03  0.12500000000E+03  0.00000000000E+00 0. -1.
         24    1    1    2    0    0  0.17964665749E+02 -0.86298789043E+02  0.37250152213E+02  0.12500000000E+03  0.80419002446E+02 0.  1.
        -24    1    1    2    0    0 -0.17964665749E+02  0.86298789043E+02 -0.37250152213E+02  0.12500000000E+03  0.80419002446E+02 0. -1.
</event>
<event>
 4    1  0.1699921E-001  0.1250000E+03  0.7546771E-02  0.1126479E+00
        -11   -1    0    0    0    0  0.00000000000E+00  0.00000000000E+00  0.12500000000E+03  0.12500000000E+03  0.00000000000E+00 0.  1.
         11   -1    0    0    0    0 -0.00000000000E+00 -0.00000000000E+00 -0.12500000000E+03  0.12500000000E+03  0.00000000000E+00 0. -1.
         24    1    1    2    0    0  0.12459585912E+00 -0.40070450429E+02  0.86902977647E+02  0.12500000000E+03  0.80419002446E+02 0.  0.
        -24    1    1    2    0    0 -0.12459585912E+00  0.40070450429E+02 -0.86902977647E+02  0.12500000000E+03  0.80419002446E+02 0.  0.
</event>
<event>
 4    1  0.1699921E-001  0.1250000E+03  0.7546771E-02  0.1126479E+00
        -11   -1    0    0    0    0  0.00000000000E+00  0.00000000000E+00  0.12500000000E+03  0.12500000000E+03  0.00000000000E+00 0.  1.
         11   -1    0    0    0    0 -0.00000000000E+00 -0.00000000000E+00 -0.12500000000E+03  0.12500000000E+03  0.00000000000E+00 0. -1.
         24    1    1    2    0    0  0.10597509372E+02  0.29589458980E+02  0.90387724598E+02  0.12500000000E+03  0.80419002446E+02 0.  1.
        -24    1    1    2    0    0 -0.10597509372E+02 -0.29589458980E+02 -0.90387724598E+02  0.12500000000E+03  0.80419002446E+02 0. -1.
</event>
<event>
 4    1  0.1699921E-001  0.1250000E+03  0.7546771E-02  0.1126479E+00
        -11   -1    0    0    0    0  0.00000000000E+00  0.00000000000E+00  0.12500000000E+03  0.12500000000E+03  0.00000000000E+00 0.  1.
         11   -1    0    0    0    0 -0.00000000000E+00 -0.00000000000E+00 -0.12500000000E+03  0.12500000000E+03  0.00000000000E+00 0. -1.
         24    1    1    2    0    0  0.10271682613E+02  0.32760431170E+02  0.89325420410E+02  0.12500000000E+03  0.80419002446E+02 0.  1.
        -24    1    1    2    0    0 -0.10271682613E+02 -0.32760431170E+02 -0.89325420410E+02  0.12500000000E+03  0.80419002446E+02 0. -1.
</event>
<event>
 4    1  0.1699921E-001  0.1250000E+03  0.7546771E-02  0.1126479E+00
        -11   -1    0    0    0    0  0.00000000000E+00  0.00000000000E+00  0.12500000000E+03  0.12500000000E+03  0.00000000000E+00 0.  1.
         11   -1    0    0    0    0 -0.00000000000E+00 -0.00000000000E+00 -0.12500000000E+03  0.12500000000E+03  0.00000000000E+00 0. -1.
         24    1    1    2    0    0 -0.23258018449E+02  0.67942569264E+01  0.92578003307E+02  0.12500000000E+03  0.80419002446E+02 0.  1.
        -24    1    1    2    0    0  0.23258018449E+02 -0.67942569264E+01 -0.92578003307E+02  0.12500000000E+03  0.80419002446E+02 0. -1.
</event>
<event>
 4    1  0.1699921E-001  0.1250000E+03  0.7546771E-02  0.1126479E+00
        -11   -1    0    0    0    0  0.00000000000E+00  0.00000000000E+00  0.12500000000E+03  0.12500000000E+03  0.00000000000E+00 0.  1.
         11   -1    0    0    0    0 -0.00000000000E+00 -0.00000000000E+00 -0.12500000000E+03  0.12500000000E+03  0.00000000000E+00 0. -1.
         24    1    1    2    0    0 -0.14810378873E+02 -0.73350865625E+02  0.59649704403E+02  0.12500000000E+03  0.80419002446E+02 0.  1.
        -24    1    1    2    0    0  0.14810378873E+02  0.73350865625E+02 -0.59649704403E+02  0.12500000000E+03  0.80419002446E+02 0. -1.
</event>
<event>
 4    1  0.1699921E-001  0.1250000E+03  0.7546771E-02  0.1126479E+00
        -11   -1    0    0    0    0  0.00000000000E+00  0.00000000000E+00  0.12500000000E+03  0.12500000000E+03  0.00000000000E+00 0.  1.
         11   -1    0    0    0    0 -0.00000000000E+00 -0.00000000000E+00 -0.12500000000E+03  0.12500000000E+03  0.00000000000E+00 0. -1.
         24    1    1    2    0    0  0.15213658524E+02  0.23620783812E+02  0.91478889434E+02  0.12500000000E+03  0.80419002446E+02 0.  1.
        -24    1    1    2    0    0 -0.15213658524E+02 -0.23620783812E+02 -0.91478889434E+02  0.12500000000E+03  0.80419002446E+02 0.  0.
</event>
<event>
 4    1  0.1699921E-001  0.1250000E+03  0.7546771E-02  0.1126479E+00
        -11   -1    0    0    0    0  0.00000000000E+00  0.00000000000E+00  0.12500000000E+03  0.12500000000E+03  0.00000000000E+00 0.  1.
         11   -1    0    0    0    0 -0.00000000000E+00 -0.00000000000E+00 -0.12500000000E+03  0.12500000000E+03  0.00000000000E+00 0. -1.
         24    1    1    2    0    0  0.33808014079E+01 -0.55548664488E+01  0.95475115534E+02  0.12500000000E+03  0.80419002446E+02 0.  0.
        -24    1    1    2    0    0 -0.33808014079E+01  0.55548664488E+01 -0.95475115534E+02  0.12500000000E+03  0.80419002446E+02 0. -1.
</event>
<event>
 4    1  0.1699921E-001  0.1250000E+03  0.7546771E-02  0.1126479E+00
        -11   -1    0    0    0    0  0.00000000000E+00  0.00000000000E+00  0.12500000000E+03  0.12500000000E+03  0.00000000000E+00 0.  1.
         11   -1    0    0    0    0 -0.00000000000E+00 -0.00000000000E+00 -0.12500000000E+03  0.12500000000E+03  0.00000000000E+00 0. -1.
         24    1    1    2    0    0  0.25035136542E+01  0.69725363139E+02  0.65497253379E+02  0.12500000000E+03  0.80419002446E+02 0.  1.
        -24    1    1    2    0    0 -0.25035136542E+01 -0.69725363139E+02 -0.65497253379E+02  0.12500000000E+03  0.80419002446E+02 0. -1.
</event>
<event>
 4    1  0.1699921E-001  0.1250000E+03  0.7546771E-02  0.1126479E+00
        -11   -1    0    0    0    0  0.00000000000E+00  0.00000000000E+00  0.12500000000E+03  0.12500000000E+03  0.00000000000E+00 0.  1.
         11   -1    0    0    0    0 -0.00000000000E+00 -0.00000000000E+00 -0.12500000000E+03  0.12500000000E+03  0.00000000000E+00 0. -1.
         24    1    1    2    0    0 -0.39316991984E+02  0.76169706057E+02  0.42545670356E+02  0.12500000000E+03  0.80419002446E+02 0.  1.
        -24    1    1    2    0    0  0.39316991984E+02 -0.76169706057E+02 -0.42545670356E+02  0.12500000000E+03  0.80419002446E+02 0. -1.
</event>
<event>
 4    1  0.1699921E-001  0.1250000E+03  0.7546771E-02  0.1126479E+00
        -11   -1    0    0    0    0  0.00000000000E+00  0.00000000000E+00  0.12500000000E+03  0.12500000000E+03  0.00000000000E+00 0.  1.
         11   -1    0    0    0    0 -0.00000000000E+00 -0.00000000000E+00 -0.12500000000E+03  0.12500000000E+03  0.00000000000E+00 0. -1.
         24    1    1    2    0    0 -0.36790075045E+02  0.86539899036E+02  0.17751628058E+02  0.12500000000E+03  0.80419002446E+02 0. -1.
        -24    1    1    2    0    0  0.36790075045E+02 -0.86539899036E+02 -0.17751628058E+02  0.12500000000E+03  0.80419002446E+02 0.  1.
</event>
<event>
 4    1  0.1699921E-001  0.1250000E+03  0.7546771E-02  0.1126479E+00
        -11   -1    0    0    0    0  0.00000000000E+00  0.00000000000E+00  0.12500000000E+03  0.12500000000E+03  0.00000000000E+00 0.  1.
         11   -1    0    0    0    0 -0.00000000000E+00 -0.00000000000E+00 -0.12500000000E+03  0.12500000000E+03  0.00000000000E+00 0. -1.
         24    1    1    2    0    0  0.65835182317E+02 -0.17332080617E+02  0.67254083864E+02  0.12500000000E+03  0.80419002446E+02 0.  1.
        -24    1    1    2    0    0 -0.65835182317E+02  0.17332080617E+02 -0.67254083864E+02  0.12500000000E+03  0.80419002446E+02 0. -1.
</event>
<event>
 4    1  0.1699921E-001  0.1250000E+03  0.7546771E-02  0.1126479E+00
        -11   -1    0    0    0    0  0.00000000000E+00  0.00000000000E+00  0.12500000000E+03  0.12500000000E+03  0.00000000000E+00 0.  1.
         11   -1    0    0    0    0 -0.00000000000E+00 -0.00000000000E+00 -0.12500000000E+03  0.12500000000E+03  0.00000000000E+00 0. -1.
         24    1    1    2    0    0 -0.50771158235E+02  0.80320689147E+02  0.11342858198E+02  0.12500000000E+03  0.80419002446E+02 0. -1.
        -24    1    1    2    0    0  0.50771158235E+02 -0.80320689147E+02 -0.11342858198E+02  0.12500000000E+03  0.80419002446E+02 0.  1.
</event>
<event>
 4    1  0.1699921E-001  0.1250000E+03  0.7546771E-02  0.1126479E+00
        -11   -1    0    0    0    0  0.00000000000E+00  0.00000000000E+00  0.12500000000E+03  0.12500000000E+03  0.00000000000E+00 0.  1.
         11   -1    0    0    0    0 -0.00000000000E+00 -0.00000000000E+00 -0.12500000000E+03  0.12500000000E+03  0.00000000000E+00 0. -1.
         24    1    1    2    0    0  0.71932667127E+01  0.26197884572E+02  0.91758987590E+02  0.12500000000E+03  0.80419002446E+02 0.  1.
        -24    1    1    2    0    0 -0.71932667127E+01 -0.26197884572E+02 -0.91758987590E+02  0.12500000000E+03  0.80419002446E+02 0. -1.
</event>
<event>
 4    1  0.1699921E-001  0.1250000E+03  0.7546771E-02  0.1126479E+00
        -11   -1    0    0    0    0  0.00000000000E+00  0.00000000000E+00  0.12500000000E+03  0.12500000000E+03  0.00000000000E+00 0.  1.
         11   -1    0    0    0    0 -0.00000000000E+00 -0.00000000000E+00 -0.12500000000E+03  0.12500000000E+03  0.00000000000E+00 0. -1.
         24    1    1    2    0    0 -0.49700101162E+02 -0.34021518267E+02  0.74365450882E+02  0.12500000000E+03  0.80419002446E+02 0.  1.
        -24    1    1    2    0    0  0.49700101162E+02  0.34021518267E+02 -0.74365450882E+02  0.12500000000E+03  0.80419002446E+02 0. -1.
</event>
<event>
 4    1  0.1699921E-001  0.1250000E+03  0.7546771E-02  0.1126479E+00
        -11   -1    0    0    0    0  0.00000000000E+00  0.00000000000E+00  0.12500000000E+03  0.12500000000E+03  0.00000000000E+00 0.  1.
         11   -1    0    0    0    0 -0.00000000000E+00 -0.00000000000E+00 -0.12500000000E+03  0.12500000000E+03  0.00000000000E+00 0. -1.
         24    1    1    2    0    0  0.20000608343E+02 -0.57309599209E+02  0.73982224554E+02  0.12500000000E+03  0.80419002446E+02 0.  1.
        -24    1    1    2    0    0 -0.20000608343E+02  0.57309599209E+02 -0.73982224554E+02  0.12500000000E+03  0.80419002446E+02 0. -1.
</event>
<event>
 4    1  0.1699921E-001  0.1250000E+03  0.7546771E-02  0.1126479E+00
        -11   -1    0    0    0    0  0.00000000000E+00  0.00000000000E+00  0.12500000000E+03  0.12500000000E+03  0.00000000000E+00 0.  1.
         11   -1    0    0    0    0 -0.00000000000E+00 -0.00000000000E+00 -0.12500000000E+03  0.12500000000E+03  0.00000000000E+00 0. -1.
         24    1    1    2    0    0 -0.13076192861E+02  0.68264121180E+02  0.65778469010E+02  0.12500000000E+03  0.80419002446E+02 0.  1.
        -24    1    1    2    0    0  0.13076192861E+02 -0.68264121180E+02 -0.65778469010E+02  0.12500000000E+03  0.80419002446E+02 0. -1.
</event>
<event>
 4    1  0.1699921E-001  0.1250000E+03  0.7546771E-02  0.1126479E+00
        -11   -1    0    0    0    0  0.00000000000E+00  0.00000000000E+00  0.12500000000E+03  0.12500000000E+03  0.00000000000E+00 0.  1.
         11   -1    0    0    0    0 -0.00000000000E+00 -0.00000000000E+00 -0.12500000000E+03  0.12500000000E+03  0.00000000000E+00 0. -1.
         24    1    1    2    0    0 -0.46613416340E+02 -0.42800002002E+02  0.71785327828E+02  0.12500000000E+03  0.80419002446E+02 0.  1.
        -24    1    1    2    0    0  0.46613416340E+02  0.42800002002E+02 -0.71785327828E+02  0.12500000000E+03  0.80419002446E+02 0. -1.
</event>
<event>
 4    1  0.1699921E-001  0.1250000E+03  0.7546771E-02  0.1126479E+00
        -11   -1    0    0    0    0  0.00000000000E+00  0.00000000000E+00  0.12500000000E+03  0.12500000000E+03  0.00000000000E+00 0.  1.
         11   -1    0    0    0    0 -0.00000000000E+00 -0.00000000000E+00 -0.12500000000E+03  0.12500000000E+03  0.00000000000E+00 0. -1.
         24    1    1    2    0    0 -0.18753143217E+02  0.26142364449E+02  0.90125914398E+02  0.12500000000E+03  0.80419002446E+02 0.  1.
        -24    1    1    2    0    0  0.18753143217E+02 -0.26142364449E+02 -0.90125914398E+02  0.12500000000E+03  0.80419002446E+02 0. -1.
</event>
<event>
 4    1  0.1699921E-001  0.1250000E+03  0.7546771E-02  0.1126479E+00
        -11   -1    0    0    0    0  0.00000000000E+00  0.00000000000E+00  0.12500000000E+03  0.12500000000E+03  0.00000000000E+00 0.  1.
         11   -1    0    0    0    0 -0.00000000000E+00 -0.00000000000E+00 -0.12500000000E+03  0.12500000000E+03  0.00000000000E+00 0. -1.
         24    1    1    2    0    0  0.12395859451E+02  0.21118708514E+02  0.92510144659E+02  0.12500000000E+03  0.80419002446E+02 0.  1.
        -24    1    1    2    0    0 -0.12395859451E+02 -0.21118708514E+02 -0.92510144659E+02  0.12500000000E+03  0.80419002446E+02 0. -1.
</event>
<event>
 4    1  0.1699921E-001  0.1250000E+03  0.7546771E-02  0.1126479E+00
        -11   -1    0    0    0    0  0.00000000000E+00  0.00000000000E+00  0.12500000000E+03  0.12500000000E+03  0.00000000000E+00 0.  1.
         11   -1    0    0    0    0 -0.00000000000E+00 -0.00000000000E+00 -0.12500000000E+03  0.12500000000E+03  0.00000000000E+00 0. -1.
         24    1    1    2    0    0 -0.76562366809E+02 -0.53093823349E+02  0.21841107033E+02  0.12500000000E+03  0.80419002446E+02 0.  0.
        -24    1    1    2    0    0  0.76562366809E+02  0.53093823349E+02 -0.21841107033E+02  0.12500000000E+03  0.80419002446E+02 0. -1.
</event>
<event>
 4    1  0.1699921E-001  0.1250000E+03  0.7546771E-02  0.1126479E+00
        -11   -1    0    0    0    0  0.00000000000E+00  0.00000000000E+00  0.12500000000E+03  0.12500000000E+03  0.00000000000E+00 0.  1.
         11   -1    0    0    0    0 -0.00000000000E+00 -0.00000000000E+00 -0.12500000000E+03  0.12500000000E+03  0.00000000000E+00 0. -1.
         24    1    1    2    0    0 -0.58076147939E+01  0.18557303901E+01  0.95501894854E+02  0.12500000000E+03  0.80419002446E+02 0.  1.
        -24    1    1    2    0    0  0.58076147939E+01 -0.18557303901E+01 -0.95501894854E+02  0.12500000000E+03  0.80419002446E+02 0.  0.
</event>
<event>
 4    1  0.1699921E-001  0.1250000E+03  0.7546771E-02  0.1126479E+00
        -11   -1    0    0    0    0  0.00000000000E+00  0.00000000000E+00  0.12500000000E+03  0.12500000000E+03  0.00000000000E+00 0.  1.
         11   -1    0    0    0    0 -0.00000000000E+00 -0.00000000000E+00 -0.12500000000E+03  0.12500000000E+03  0.00000000000E+00 0. -1.
         24    1    1    2    0    0  0.51621170699E+01 -0.13551653830E+02  0.94591169099E+02  0.12500000000E+03  0.80419002446E+02 0.  1.
        -24    1    1    2    0    0 -0.51621170699E+01  0.13551653830E+02 -0.94591169099E+02  0.12500000000E+03  0.80419002446E+02 0. -1.
</event>
<event>
 4    1  0.1699921E-001  0.1250000E+03  0.7546771E-02  0.1126479E+00
        -11   -1    0    0    0    0  0.00000000000E+00  0.00000000000E+00  0.12500000000E+03  0.12500000000E+03  0.00000000000E+00 0.  1.
         11   -1    0    0    0    0 -0.00000000000E+00 -0.00000000000E+00 -0.12500000000E+03  0.12500000000E+03  0.00000000000E+00 0. -1.
         24    1    1    2    0    0 -0.20426015218E+02  0.16568960324E+02  0.92011040108E+02  0.12500000000E+03  0.80419002446E+02 0.  1.
        -24    1    1    2    0    0  0.20426015218E+02 -0.16568960324E+02 -0.92011040108E+02  0.12500000000E+03  0.80419002446E+02 0. -1.
</event>
<event>
 4    1  0.1699921E-001  0.1250000E+03  0.7546771E-02  0.1126479E+00
        -11   -1    0    0    0    0  0.00000000000E+00  0.00000000000E+00  0.12500000000E+03  0.12500000000E+03  0.00000000000E+00 0.  1.
         11   -1    0    0    0    0 -0.00000000000E+00 -0.00000000000E+00 -0.12500000000E+03  0.12500000000E+03  0.00000000000E+00 0. -1.
         24    1    1    2    0    0 -0.40686670801E+02  0.89179508189E+00  0.86611682620E+02  0.12500000000E+03  0.80419002446E+02 0.  1.
        -24    1    1    2    0    0  0.40686670801E+02 -0.89179508189E+00 -0.86611682620E+02  0.12500000000E+03  0.80419002446E+02 0. -1.
</event>
<event>
 4    1  0.1699921E-001  0.1250000E+03  0.7546771E-02  0.1126479E+00
        -11   -1    0    0    0    0  0.00000000000E+00  0.00000000000E+00  0.12500000000E+03  0.12500000000E+03  0.00000000000E+00 0.  1.
         11   -1    0    0    0    0 -0.00000000000E+00 -0.00000000000E+00 -0.12500000000E+03  0.12500000000E+03  0.00000000000E+00 0. -1.
         24    1    1    2    0    0  0.76861404031E+01  0.93266706527E+02 -0.20000718612E+02  0.12500000000E+03  0.80419002446E+02 0. -1.
        -24    1    1    2    0    0 -0.76861404031E+01 -0.93266706527E+02  0.20000718612E+02  0.12500000000E+03  0.80419002446E+02 0.  1.
</event>
<event>
 4    1  0.1699921E-001  0.1250000E+03  0.7546771E-02  0.1126479E+00
        -11   -1    0    0    0    0  0.00000000000E+00  0.00000000000E+00  0.12500000000E+03  0.12500000000E+03  0.00000000000E+00 0.  1.
         11   -1    0    0    0    0 -0.00000000000E+00 -0.00000000000E+00 -0.12500000000E+03  0.12500000000E+03  0.00000000000E+00 0. -1.
         24    1    1    2    0    0 -0.18305944048E+02  0.32043950428E+02  0.88294177040E+02  0.12500000000E+03  0.80419002446E+02 0.  1.
        -24    1    1    2    0    0  0.18305944048E+02 -0.32043950428E+02 -0.88294177040E+02  0.12500000000E+03  0.80419002446E+02 0. -1.
</event>
<event>
 4    1  0.1699921E-001  0.1250000E+03  0.7546771E-02  0.1126479E+00
        -11   -1    0    0    0    0  0.00000000000E+00  0.00000000000E+00  0.12500000000E+03  0.12500000000E+03  0.00000000000E+00 0.  1.
         11   -1    0    0    0    0 -0.00000000000E+00 -0.00000000000E+00 -0.12500000000E+03  0.12500000000E+03  0.00000000000E+00 0. -1.
         24    1    1    2    0    0  0.28881822895E+01 -0.28726356346E+02  0.91237267056E+02  0.12500000000E+03  0.80419002446E+02 0.  1.
        -24    1    1    2    0    0 -0.28881822895E+01  0.28726356346E+02 -0.91237267056E+02  0.12500000000E+03  0.80419002446E+02 0. -1.
</event>
<event>
 4    1  0.1699921E-001  0.1250000E+03  0.7546771E-02  0.1126479E+00
        -11   -1    0    0    0    0  0.00000000000E+00  0.00000000000E+00  0.12500000000E+03  0.12500000000E+03  0.00000000000E+00 0.  1.
         11   -1    0    0    0    0 -0.00000000000E+00 -0.00000000000E+00 -0.12500000000E+03  0.12500000000E+03  0.00000000000E+00 0. -1.
         24    1    1    2    0    0  0.18191618919E+02  0.10930359420E+02  0.93313323216E+02  0.12500000000E+03  0.80419002446E+02 0.  1.
        -24    1    1    2    0    0 -0.18191618919E+02 -0.10930359420E+02 -0.93313323216E+02  0.12500000000E+03  0.80419002446E+02 0. -1.
</event>
<event>
 4    1  0.1699921E-001  0.1250000E+03  0.7546771E-02  0.1126479E+00
        -11   -1    0    0    0    0  0.00000000000E+00  0.00000000000E+00  0.12500000000E+03  0.12500000000E+03  0.00000000000E+00 0.  1.
         11   -1    0    0    0    0 -0.00000000000E+00 -0.00000000000E+00 -0.12500000000E+03  0.12500000000E+03  0.00000000000E+00 0. -1.
         24    1    1    2    0    0  0.37313864910E+02  0.51381067970E+02  0.71592215955E+02  0.12500000000E+03  0.80419002446E+02 0.  1.
        -24    1    1    2    0    0 -0.37313864910E+02 -0.51381067970E+02 -0.71592215955E+02  0.12500000000E+03  0.80419002446E+02 0. -1.
</event>
<event>
 4    1  0.1699921E-001  0.1250000E+03  0.7546771E-02  0.1126479E+00
        -11   -1    0    0    0    0  0.00000000000E+00  0.00000000000E+00  0.12500000000E+03  0.12500000000E+03  0.00000000000E+00 0.  1.
         11   -1    0    0    0    0 -0.00000000000E+00 -0.00000000000E+00 -0.12500000000E+03  0.12500000000E+03  0.00000000000E+00 0. -1.
         24    1    1    2    0    0  0.54668070944E+02 -0.59513976048E+02  0.51256928505E+02  0.12500000000E+03  0.80419002446E+02 0.  1.
        -24    1    1    2    0    0 -0.54668070944E+02  0.59513976048E+02 -0.51256928505E+02  0.12500000000E+03  0.80419002446E+02 0. -1.
</event>
<event>
 4    1  0.1699921E-001  0.1250000E+03  0.7546771E-02  0.1126479E+00
        -11   -1    0    0    0    0  0.00000000000E+00  0.00000000000E+00  0.12500000000E+03  0.12500000000E+03  0.00000000000E+00 0.  1.
         11   -1    0    0    0    0 -0.00000000000E+00 -0.00000000000E+00 -0.12500000000E+03  0.12500000000E+03  0.00000000000E+00 0. -1.
         24    1    1    2    0    0 -0.12470123593E+02  0.78736523837E+02  0.52941853738E+02  0.12500000000E+03  0.80419002446E+02 0.  1.
        -24    1    1    2    0    0  0.12470123593E+02 -0.78736523837E+02 -0.52941853738E+02  0.12500000000E+03  0.80419002446E+02 0. -1.
</event>
<event>
 4    1  0.1699921E-001  0.1250000E+03  0.7546771E-02  0.1126479E+00
        -11   -1    0    0    0    0  0.00000000000E+00  0.00000000000E+00  0.12500000000E+03  0.12500000000E+03  0.00000000000E+00 0.  1.
         11   -1    0    0    0    0 -0.00000000000E+00 -0.00000000000E+00 -0.12500000000E+03  0.12500000000E+03  0.00000000000E+00 0. -1.
         24    1    1    2    0    0 -0.26900658640E+02 -0.21138999231E+02  0.89371591246E+02  0.12500000000E+03  0.80419002446E+02 0.  1.
        -24    1    1    2    0    0  0.26900658640E+02  0.21138999231E+02 -0.89371591246E+02  0.12500000000E+03  0.80419002446E+02 0. -1.
</event>
<event>
 4    1  0.1699921E-001  0.1250000E+03  0.7546771E-02  0.1126479E+00
        -11   -1    0    0    0    0  0.00000000000E+00  0.00000000000E+00  0.12500000000E+03  0.12500000000E+03  0.00000000000E+00 0.  1.
         11   -1    0    0    0    0 -0.00000000000E+00 -0.00000000000E+00 -0.12500000000E+03  0.12500000000E+03  0.00000000000E+00 0. -1.
         24    1    1    2    0    0 -0.70362421290E+02  0.12198659932E+02  0.63703268454E+02  0.12500000000E+03  0.80419002446E+02 0.  1.
        -24    1    1    2    0    0  0.70362421290E+02 -0.12198659932E+02 -0.63703268454E+02  0.12500000000E+03  0.80419002446E+02 0. -1.
</event>
<event>
 4    1  0.1699921E-001  0.1250000E+03  0.7546771E-02  0.1126479E+00
        -11   -1    0    0    0    0  0.00000000000E+00  0.00000000000E+00  0.12500000000E+03  0.12500000000E+03  0.00000000000E+00 0.  1.
         11   -1    0    0    0    0 -0.00000000000E+00 -0.00000000000E+00 -0.12500000000E+03  0.12500000000E+03  0.00000000000E+00 0. -1.
         24    1    1    2    0    0 -0.54983816226E+02  0.35200132200E+02  0.69967954750E+02  0.12500000000E+03  0.80419002446E+02 0.  1.
        -24    1    1    2    0    0  0.54983816226E+02 -0.35200132200E+02 -0.69967954750E+02  0.12500000000E+03  0.80419002446E+02 0. -1.
</event>
<event>
 4    1  0.1699921E-001  0.1250000E+03  0.7546771E-02  0.1126479E+00
        -11   -1    0    0    0    0  0.00000000000E+00  0.00000000000E+00  0.12500000000E+03  0.12500000000E+03  0.00000000000E+00 0.  1.
         11   -1    0    0    0    0 -0.00000000000E+00 -0.00000000000E+00 -0.12500000000E+03  0.12500000000E+03  0.00000000000E+00 0. -1.
         24    1    1    2    0    0 -0.47866688717E+02 -0.21659743305E+02  0.79983871354E+02  0.12500000000E+03  0.80419002446E+02 0.  1.
        -24    1    1    2    0    0  0.47866688717E+02  0.21659743305E+02 -0.79983871354E+02  0.12500000000E+03  0.80419002446E+02 0. -1.
</event>
<event>
 4    1  0.1699921E-001  0.1250000E+03  0.7546771E-02  0.1126479E+00
        -11   -1    0    0    0    0  0.00000000000E+00  0.00000000000E+00  0.12500000000E+03  0.12500000000E+03  0.00000000000E+00 0.  1.
         11   -1    0    0    0    0 -0.00000000000E+00 -0.00000000000E+00 -0.12500000000E+03  0.12500000000E+03  0.00000000000E+00 0. -1.
         24    1    1    2    0    0 -0.45945464960E+02  0.69894072667E+02  0.46493191989E+02  0.12500000000E+03  0.80419002446E+02 0.  1.
        -24    1    1    2    0    0  0.45945464960E+02 -0.69894072667E+02 -0.46493191989E+02  0.12500000000E+03  0.80419002446E+02 0. -1.
</event>
<event>
 4    1  0.1699921E-001  0.1250000E+03  0.7546771E-02  0.1126479E+00
        -11   -1    0    0    0    0  0.00000000000E+00  0.00000000000E+00  0.12500000000E+03  0.12500000000E+03  0.00000000000E+00 0.  1.
         11   -1    0    0    0    0 -0.00000000000E+00 -0.00000000000E+00 -0.12500000000E+03  0.12500000000E+03  0.00000000000E+00 0. -1.
         24    1    1    2    0    0  0.76503364258E+02 -0.15111297015E+01 -0.57469433526E+02  0.12500000000E+03  0.80419002446E+02 0. -1.
        -24    1    1    2    0    0 -0.76503364258E+02  0.15111297015E+01  0.57469433526E+02  0.12500000000E+03  0.80419002446E+02 0.  1.
</event>
<event>
 4    1  0.1699921E-001  0.1250000E+03  0.7546771E-02  0.1126479E+00
        -11   -1    0    0    0    0  0.00000000000E+00  0.00000000000E+00  0.12500000000E+03  0.12500000000E+03  0.00000000000E+00 0.  1.
         11   -1    0    0    0    0 -0.00000000000E+00 -0.00000000000E+00 -0.12500000000E+03  0.12500000000E+03  0.00000000000E+00 0. -1.
         24    1    1    2    0    0 -0.85309222346E+01  0.32662345171E+02  0.89544283008E+02  0.12500000000E+03  0.80419002446E+02 0.  1.
        -24    1    1    2    0    0  0.85309222346E+01 -0.32662345171E+02 -0.89544283008E+02  0.12500000000E+03  0.80419002446E+02 0. -1.
</event>
<event>
 4    1  0.1699921E-001  0.1250000E+03  0.7546771E-02  0.1126479E+00
        -11   -1    0    0    0    0  0.00000000000E+00  0.00000000000E+00  0.12500000000E+03  0.12500000000E+03  0.00000000000E+00 0.  1.
         11   -1    0    0    0    0 -0.00000000000E+00 -0.00000000000E+00 -0.12500000000E+03  0.12500000000E+03  0.00000000000E+00 0. -1.
         24    1    1    2    0    0 -0.42072662754E+02 -0.10741861341E+02  0.85277708162E+02  0.12500000000E+03  0.80419002446E+02 0.  1.
        -24    1    1    2    0    0  0.42072662754E+02  0.10741861341E+02 -0.85277708162E+02  0.12500000000E+03  0.80419002446E+02 0. -1.
</event>
<event>
 4    1  0.1699921E-001  0.1250000E+03  0.7546771E-02  0.1126479E+00
        -11   -1    0    0    0    0  0.00000000000E+00  0.00000000000E+00  0.12500000000E+03  0.12500000000E+03  0.00000000000E+00 0.  1.
         11   -1    0    0    0    0 -0.00000000000E+00 -0.00000000000E+00 -0.12500000000E+03  0.12500000000E+03  0.00000000000E+00 0. -1.
         24    1    1    2    0    0  0.74183073219E+01  0.36986902985E+02  0.87947266983E+02  0.12500000000E+03  0.80419002446E+02 0.  1.
        -24    1    1    2    0    0 -0.74183073219E+01 -0.36986902985E+02 -0.87947266983E+02  0.12500000000E+03  0.80419002446E+02 0.  0.
</event>
<event>
 4    1  0.1699921E-001  0.1250000E+03  0.7546771E-02  0.1126479E+00
        -11   -1    0    0    0    0  0.00000000000E+00  0.00000000000E+00  0.12500000000E+03  0.12500000000E+03  0.00000000000E+00 0.  1.
         11   -1    0    0    0    0 -0.00000000000E+00 -0.00000000000E+00 -0.12500000000E+03  0.12500000000E+03  0.00000000000E+00 0. -1.
         24    1    1    2    0    0  0.11631937131E+02  0.73621939279E+01  0.94701004138E+02  0.12500000000E+03  0.80419002446E+02 0.  1.
        -24    1    1    2    0    0 -0.11631937131E+02 -0.73621939279E+01 -0.94701004138E+02  0.12500000000E+03  0.80419002446E+02 0. -1.
</event>
<event>
 4    1  0.1699921E-001  0.1250000E+03  0.7546771E-02  0.1126479E+00
        -11   -1    0    0    0    0  0.00000000000E+00  0.00000000000E+00  0.12500000000E+03  0.12500000000E+03  0.00000000000E+00 0.  1.
         11   -1    0    0    0    0 -0.00000000000E+00 -0.00000000000E+00 -0.12500000000E+03  0.12500000000E+03  0.00000000000E+00 0. -1.
         24    1    1    2    0    0 -0.33894859790E+02  0.43961156568E+02  0.77950877087E+02  0.12500000000E+03  0.80419002446E+02 0.  1.
        -24    1    1    2    0    0  0.33894859790E+02 -0.43961156568E+02 -0.77950877087E+02  0.12500000000E+03  0.80419002446E+02 0. -1.
</event>
<event>
 4    1  0.1699921E-001  0.1250000E+03  0.7546771E-02  0.1126479E+00
        -11   -1    0    0    0    0  0.00000000000E+00  0.00000000000E+00  0.12500000000E+03  0.12500000000E+03  0.00000000000E+00 0.  1.
         11   -1    0    0    0    0 -0.00000000000E+00 -0.00000000000E+00 -0.12500000000E+03  0.12500000000E+03  0.00000000000E+00 0. -1.
         24    1    1    2    0    0  0.35442328415E+02 -0.94657172578E+01  0.88385663990E+02  0.12500000000E+03  0.80419002446E+02 0.  1.
        -24    1    1    2    0    0 -0.35442328415E+02  0.94657172578E+01 -0.88385663990E+02  0.12500000000E+03  0.80419002446E+02 0. -1.
</event>
<event>
 4    1  0.1699921E-001  0.1250000E+03  0.7546771E-02  0.1126479E+00
        -11   -1    0    0    0    0  0.00000000000E+00  0.00000000000E+00  0.12500000000E+03  0.12500000000E+03  0.00000000000E+00 0.  1.
         11   -1    0    0    0    0 -0.00000000000E+00 -0.00000000000E+00 -0.12500000000E+03  0.12500000000E+03  0.00000000000E+00 0. -1.
         24    1    1    2    0    0 -0.36631904973E+02  0.11530007476E+02  0.87652418742E+02  0.12500000000E+03  0.80419002446E+02 0.  1.
        -24    1    1    2    0    0  0.36631904973E+02 -0.11530007476E+02 -0.87652418742E+02  0.12500000000E+03  0.80419002446E+02 0. -1.
</event>
<event>
 4    1  0.1699921E-001  0.1250000E+03  0.7546771E-02  0.1126479E+00
        -11   -1    0    0    0    0  0.00000000000E+00  0.00000000000E+00  0.12500000000E+03  0.12500000000E+03  0.00000000000E+00 0.  1.
         11   -1    0    0    0    0 -0.00000000000E+00 -0.00000000000E+00 -0.12500000000E+03  0.12500000000E+03  0.00000000000E+00 0. -1.
         24    1    1    2    0    0 -0.84559602996E+02 -0.42199255963E+02 -0.15055908574E+02  0.12500000000E+03  0.80419002446E+02 0. -1.
        -24    1    1    2    0    0  0.84559602996E+02  0.42199255963E+02  0.15055908574E+02  0.12500000000E+03  0.80419002446E+02 0.  1.
</event>
<event>
 4    1  0.1699921E-001  0.1250000E+03  0.7546771E-02  0.1126479E+00
        -11   -1    0    0    0    0  0.00000000000E+00  0.00000000000E+00  0.12500000000E+03  0.12500000000E+03  0.00000000000E+00 0.  1.
         11   -1    0    0    0    0 -0.00000000000E+00 -0.00000000000E+00 -0.12500000000E+03  0.12500000000E+03  0.00000000000E+00 0. -1.
         24    1    1    2    0    0  0.11052155597E+02  0.40301574455E+01  0.94970478220E+02  0.12500000000E+03  0.80419002446E+02 0.  1.
        -24    1    1    2    0    0 -0.11052155597E+02 -0.40301574455E+01 -0.94970478220E+02  0.12500000000E+03  0.80419002446E+02 0.  0.
</event>
<event>
 4    1  0.1699921E-001  0.1250000E+03  0.7546771E-02  0.1126479E+00
        -11   -1    0    0    0    0  0.00000000000E+00  0.00000000000E+00  0.12500000000E+03  0.12500000000E+03  0.00000000000E+00 0.  1.
         11   -1    0    0    0    0 -0.00000000000E+00 -0.00000000000E+00 -0.12500000000E+03  0.12500000000E+03  0.00000000000E+00 0. -1.
         24    1    1    2    0    0 -0.14218928091E+02 -0.42727038257E+02  0.84439364821E+02  0.12500000000E+03  0.80419002446E+02 0.  1.
        -24    1    1    2    0    0  0.14218928091E+02  0.42727038257E+02 -0.84439364821E+02  0.12500000000E+03  0.80419002446E+02 0. -1.
</event>
<event>
 4    1  0.1699921E-001  0.1250000E+03  0.7546771E-02  0.1126479E+00
        -11   -1    0    0    0    0  0.00000000000E+00  0.00000000000E+00  0.12500000000E+03  0.12500000000E+03  0.00000000000E+00 0.  1.
         11   -1    0    0    0    0 -0.00000000000E+00 -0.00000000000E+00 -0.12500000000E+03  0.12500000000E+03  0.00000000000E+00 0. -1.
         24    1    1    2    0    0 -0.10167100896E+02 -0.50933441475E+02  0.80375360929E+02  0.12500000000E+03  0.80419002446E+02 0.  1.
        -24    1    1    2    0    0  0.10167100896E+02  0.50933441475E+02 -0.80375360929E+02  0.12500000000E+03  0.80419002446E+02 0. -1.
</event>
<event>
 4    1  0.1699921E-001  0.1250000E+03  0.7546771E-02  0.1126479E+00
        -11   -1    0    0    0    0  0.00000000000E+00  0.00000000000E+00  0.12500000000E+03  0.12500000000E+03  0.00000000000E+00 0.  1.
         11   -1    0    0    0    0 -0.00000000000E+00 -0.00000000000E+00 -0.12500000000E+03  0.12500000000E+03  0.00000000000E+00 0. -1.
         24    1    1    2    0    0 -0.92541175544E+02  0.50107724536E+01  0.23849675762E+02  0.12500000000E+03  0.80419002446E+02 0.  1.
        -24    1    1    2    0    0  0.92541175544E+02 -0.50107724536E+01 -0.23849675762E+02  0.12500000000E+03  0.80419002446E+02 0.  0.
</event>
<event>
 4    1  0.1699921E-001  0.1250000E+03  0.7546771E-02  0.1126479E+00
        -11   -1    0    0    0    0  0.00000000000E+00  0.00000000000E+00  0.12500000000E+03  0.12500000000E+03  0.00000000000E+00 0.  1.
         11   -1    0    0    0    0 -0.00000000000E+00 -0.00000000000E+00 -0.12500000000E+03  0.12500000000E+03  0.00000000000E+00 0. -1.
         24    1    1    2    0    0  0.84182582712E+02  0.18670496554E+02  0.41502883899E+02  0.12500000000E+03  0.80419002446E+02 0.  1.
        -24    1    1    2    0    0 -0.84182582712E+02 -0.18670496554E+02 -0.41502883899E+02  0.12500000000E+03  0.80419002446E+02 0. -1.
</event>
<event>
 4    1  0.1699921E-001  0.1250000E+03  0.7546771E-02  0.1126479E+00
        -11   -1    0    0    0    0  0.00000000000E+00  0.00000000000E+00  0.12500000000E+03  0.12500000000E+03  0.00000000000E+00 0.  1.
         11   -1    0    0    0    0 -0.00000000000E+00 -0.00000000000E+00 -0.12500000000E+03  0.12500000000E+03  0.00000000000E+00 0. -1.
         24    1    1    2    0    0 -0.29416321146E+02  0.86428101302E+00  0.91058866203E+02  0.12500000000E+03  0.80419002446E+02 0.  1.
        -24    1    1    2    0    0  0.29416321146E+02 -0.86428101302E+00 -0.91058866203E+02  0.12500000000E+03  0.80419002446E+02 0. -1.
</event>
<event>
 4    1  0.1699921E-001  0.1250000E+03  0.7546771E-02  0.1126479E+00
        -11   -1    0    0    0    0  0.00000000000E+00  0.00000000000E+00  0.12500000000E+03  0.12500000000E+03  0.00000000000E+00 0.  1.
         11   -1    0    0    0    0 -0.00000000000E+00 -0.00000000000E+00 -0.12500000000E+03  0.12500000000E+03  0.00000000000E+00 0. -1.
         24    1    1    2    0    0 -0.72584448194E+01 -0.37664493965E+02  0.87672600730E+02  0.12500000000E+03  0.80419002446E+02 0.  1.
        -24    1    1    2    0    0  0.72584448194E+01  0.37664493965E+02 -0.87672600730E+02  0.12500000000E+03  0.80419002446E+02 0. -1.
</event>
<event>
 4    1  0.1699921E-001  0.1250000E+03  0.7546771E-02  0.1126479E+00
        -11   -1    0    0    0    0  0.00000000000E+00  0.00000000000E+00  0.12500000000E+03  0.12500000000E+03  0.00000000000E+00 0.  1.
         11   -1    0    0    0    0 -0.00000000000E+00 -0.00000000000E+00 -0.12500000000E+03  0.12500000000E+03  0.00000000000E+00 0. -1.
         24    1    1    2    0    0 -0.95000538781E+01 -0.25981251931E+02  0.91610630224E+02  0.12500000000E+03  0.80419002446E+02 0.  1.
        -24    1    1    2    0    0  0.95000538781E+01  0.25981251931E+02 -0.91610630224E+02  0.12500000000E+03  0.80419002446E+02 0. -1.
</event>
<event>
 4    1  0.1699921E-001  0.1250000E+03  0.7546771E-02  0.1126479E+00
        -11   -1    0    0    0    0  0.00000000000E+00  0.00000000000E+00  0.12500000000E+03  0.12500000000E+03  0.00000000000E+00 0.  1.
         11   -1    0    0    0    0 -0.00000000000E+00 -0.00000000000E+00 -0.12500000000E+03  0.12500000000E+03  0.00000000000E+00 0. -1.
         24    1    1    2    0    0 -0.30125216307E+02  0.39022568632E+01  0.90747053834E+02  0.12500000000E+03  0.80419002446E+02 0.  1.
        -24    1    1    2    0    0  0.30125216307E+02 -0.39022568632E+01 -0.90747053834E+02  0.12500000000E+03  0.80419002446E+02 0. -1.
</event>
<event>
 4    1  0.1699921E-001  0.1250000E+03  0.7546771E-02  0.1126479E+00
        -11   -1    0    0    0    0  0.00000000000E+00  0.00000000000E+00  0.12500000000E+03  0.12500000000E+03  0.00000000000E+00 0.  1.
         11   -1    0    0    0    0 -0.00000000000E+00 -0.00000000000E+00 -0.12500000000E+03  0.12500000000E+03  0.00000000000E+00 0. -1.
         24    1    1    2    0    0 -0.33081643414E+02 -0.39199054836E+02  0.80788755496E+02  0.12500000000E+03  0.80419002446E+02 0.  1.
        -24    1    1    2    0    0  0.33081643414E+02  0.39199054836E+02 -0.80788755496E+02  0.12500000000E+03  0.80419002446E+02 0. -1.
</event>
<event>
 4    1  0.1699921E-001  0.1250000E+03  0.7546771E-02  0.1126479E+00
        -11   -1    0    0    0    0  0.00000000000E+00  0.00000000000E+00  0.12500000000E+03  0.12500000000E+03  0.00000000000E+00 0.  1.
         11   -1    0    0    0    0 -0.00000000000E+00 -0.00000000000E+00 -0.12500000000E+03  0.12500000000E+03  0.00000000000E+00 0. -1.
         24    1    1    2    0    0 -0.51640387471E+01  0.47055253832E+02  0.83168021717E+02  0.12500000000E+03  0.80419002446E+02 0.  1.
        -24    1    1    2    0    0  0.51640387471E+01 -0.47055253832E+02 -0.83168021717E+02  0.12500000000E+03  0.80419002446E+02 0. -1.
</event>
<event>
 4    1  0.1699921E-001  0.1250000E+03  0.7546771E-02  0.1126479E+00
        -11   -1    0    0    0    0  0.00000000000E+00  0.00000000000E+00  0.12500000000E+03  0.12500000000E+03  0.00000000000E+00 0.  1.
         11   -1    0    0    0    0 -0.00000000000E+00 -0.00000000000E+00 -0.12500000000E+03  0.12500000000E+03  0.00000000000E+00 0. -1.
         24    1    1    2    0    0  0.85536985531E+02 -0.31374447518E+02  0.29272037763E+02  0.12500000000E+03  0.80419002446E+02 0.  1.
        -24    1    1    2    0    0 -0.85536985531E+02  0.31374447518E+02 -0.29272037763E+02  0.12500000000E+03  0.80419002446E+02 0. -1.
</event>
<event>
 4    1  0.1699921E-001  0.1250000E+03  0.7546771E-02  0.1126479E+00
        -11   -1    0    0    0    0  0.00000000000E+00  0.00000000000E+00  0.12500000000E+03  0.12500000000E+03  0.00000000000E+00 0.  1.
         11   -1    0    0    0    0 -0.00000000000E+00 -0.00000000000E+00 -0.12500000000E+03  0.12500000000E+03  0.00000000000E+00 0. -1.
         24    1    1    2    0    0 -0.45429279518E+02 -0.21160769657E+02 -0.81524146335E+02  0.12500000000E+03  0.80419002446E+02 0. -1.
        -24    1    1    2    0    0  0.45429279518E+02  0.21160769657E+02  0.81524146335E+02  0.12500000000E+03  0.80419002446E+02 0.  1.
</event>
<event>
 4    1  0.1699921E-001  0.1250000E+03  0.7546771E-02  0.1126479E+00
        -11   -1    0    0    0    0  0.00000000000E+00  0.00000000000E+00  0.12500000000E+03  0.12500000000E+03  0.00000000000E+00 0.  1.
         11   -1    0    0    0    0 -0.00000000000E+00 -0.00000000000E+00 -0.12500000000E+03  0.12500000000E+03  0.00000000000E+00 0. -1.
         24    1    1    2    0    0 -0.24053065880E+01  0.35960758237E+00  0.95665402462E+02  0.12500000000E+03  0.80419002446E+02 0.  1.
        -24    1    1    2    0    0  0.24053065880E+01 -0.35960758237E+00 -0.95665402462E+02  0.12500000000E+03  0.80419002446E+02 0.  0.
</event>
<event>
 4    1  0.1699921E-001  0.1250000E+03  0.7546771E-02  0.1126479E+00
        -11   -1    0    0    0    0  0.00000000000E+00  0.00000000000E+00  0.12500000000E+03  0.12500000000E+03  0.00000000000E+00 0.  1.
         11   -1    0    0    0    0 -0.00000000000E+00 -0.00000000000E+00 -0.12500000000E+03  0.12500000000E+03  0.00000000000E+00 0. -1.
         24    1    1    2    0    0 -0.45584682717E+02 -0.83370868061E+01  0.83727616297E+02  0.12500000000E+03  0.80419002446E+02 0.  1.
        -24    1    1    2    0    0  0.45584682717E+02  0.83370868061E+01 -0.83727616297E+02  0.12500000000E+03  0.80419002446E+02 0. -1.
</event>
<event>
 4    1  0.1699921E-001  0.1250000E+03  0.7546771E-02  0.1126479E+00
        -11   -1    0    0    0    0  0.00000000000E+00  0.00000000000E+00  0.12500000000E+03  0.12500000000E+03  0.00000000000E+00 0.  1.
         11   -1    0    0    0    0 -0.00000000000E+00 -0.00000000000E+00 -0.12500000000E+03  0.12500000000E+03  0.00000000000E+00 0. -1.
         24    1    1    2    0    0  0.75916920174E+02  0.57677455254E+02 -0.82289994756E+01  0.12500000000E+03  0.80419002446E+02 0. -1.
        -24    1    1    2    0    0 -0.75916920174E+02 -0.57677455254E+02  0.82289994756E+01  0.12500000000E+03  0.80419002446E+02 0.  1.
</event>
<event>
 4    1  0.1699921E-001  0.1250000E+03  0.7546771E-02  0.1126479E+00
        -11   -1    0    0    0    0  0.00000000000E+00  0.00000000000E+00  0.12500000000E+03  0.12500000000E+03  0.00000000000E+00 0.  1.
         11   -1    0    0    0    0 -0.00000000000E+00 -0.00000000000E+00 -0.12500000000E+03  0.12500000000E+03  0.00000000000E+00 0. -1.
         24    1    1    2    0    0 -0.30269396782E+02  0.64212322645E+02  0.64174179267E+02  0.12500000000E+03  0.80419002446E+02 0.  1.
        -24    1    1    2    0    0  0.30269396782E+02 -0.64212322645E+02 -0.64174179267E+02  0.12500000000E+03  0.80419002446E+02 0. -1.
</event>
<event>
 4    1  0.1699921E-001  0.1250000E+03  0.7546771E-02  0.1126479E+00
        -11   -1    0    0    0    0  0.00000000000E+00  0.00000000000E+00  0.12500000000E+03  0.12500000000E+03  0.00000000000E+00 0.  1.
         11   -1    0    0    0    0 -0.00000000000E+00 -0.00000000000E+00 -0.12500000000E+03  0.12500000000E+03  0.00000000000E+00 0. -1.
         24    1    1    2    0    0  0.21634557476E+02 -0.37627703464E+02  0.85287079329E+02  0.12500000000E+03  0.80419002446E+02 0.  1.
        -24    1    1    2    0    0 -0.21634557476E+02  0.37627703464E+02 -0.85287079329E+02  0.12500000000E+03  0.80419002446E+02 0. -1.
</event>
<event>
 4    1  0.1699921E-001  0.1250000E+03  0.7546771E-02  0.1126479E+00
        -11   -1    0    0    0    0  0.00000000000E+00  0.00000000000E+00  0.12500000000E+03  0.12500000000E+03  0.00000000000E+00 0.  1.
         11   -1    0    0    0    0 -0.00000000000E+00 -0.00000000000E+00 -0.12500000000E+03  0.12500000000E+03  0.00000000000E+00 0. -1.
         24    1    1    2    0    0  0.12324233638E+02  0.10941946979E+01  0.94893098004E+02  0.12500000000E+03  0.80419002446E+02 0.  0.
        -24    1    1    2    0    0 -0.12324233638E+02 -0.10941946979E+01 -0.94893098004E+02  0.12500000000E+03  0.80419002446E+02 0. -1.
</event>
<event>
 4    1  0.1699921E-001  0.1250000E+03  0.7546771E-02  0.1126479E+00
        -11   -1    0    0    0    0  0.00000000000E+00  0.00000000000E+00  0.12500000000E+03  0.12500000000E+03  0.00000000000E+00 0.  1.
         11   -1    0    0    0    0 -0.00000000000E+00 -0.00000000000E+00 -0.12500000000E+03  0.12500000000E+03  0.00000000000E+00 0. -1.
         24    1    1    2    0    0  0.18278096738E+02  0.65521126589E+01  0.93705736457E+02  0.12500000000E+03  0.80419002446E+02 0.  0.
        -24    1    1    2    0    0 -0.18278096738E+02 -0.65521126589E+01 -0.93705736457E+02  0.12500000000E+03  0.80419002446E+02 0. -1.
</event>
<event>
 4    1  0.1699921E-001  0.1250000E+03  0.7546771E-02  0.1126479E+00
        -11   -1    0    0    0    0  0.00000000000E+00  0.00000000000E+00  0.12500000000E+03  0.12500000000E+03  0.00000000000E+00 0.  1.
         11   -1    0    0    0    0 -0.00000000000E+00 -0.00000000000E+00 -0.12500000000E+03  0.12500000000E+03  0.00000000000E+00 0. -1.
         24    1    1    2    0    0  0.17411785718E+02  0.21381300936E+02  0.91637621827E+02  0.12500000000E+03  0.80419002446E+02 0.  0.
        -24    1    1    2    0    0 -0.17411785718E+02 -0.21381300936E+02 -0.91637621827E+02  0.12500000000E+03  0.80419002446E+02 0. -1.
</event>
<event>
 4    1  0.1699921E-001  0.1250000E+03  0.7546771E-02  0.1126479E+00
        -11   -1    0    0    0    0  0.00000000000E+00  0.00000000000E+00  0.12500000000E+03  0.12500000000E+03  0.00000000000E+00 0.  1.
         11   -1    0    0    0    0 -0.00000000000E+00 -0.00000000000E+00 -0.12500000000E+03  0.12500000000E+03  0.00000000000E+00 0. -1.
         24    1    1    2    0    0  0.28560469072E+02  0.42293356144E+02  0.80952799075E+02  0.12500000000E+03  0.80419002446E+02 0.  1.
        -24    1    1    2    0    0 -0.28560469072E+02 -0.42293356144E+02 -0.80952799075E+02  0.12500000000E+03  0.80419002446E+02 0. -1.
</event>
<event>
 4    1  0.1699921E-001  0.1250000E+03  0.7546771E-02  0.1126479E+00
        -11   -1    0    0    0    0  0.00000000000E+00  0.00000000000E+00  0.12500000000E+03  0.12500000000E+03  0.00000000000E+00 0.  1.
         11   -1    0    0    0    0 -0.00000000000E+00 -0.00000000000E+00 -0.12500000000E+03  0.12500000000E+03  0.00000000000E+00 0. -1.
         24    1    1    2    0    0  0.23366083007E+02 -0.52239489223E+02  0.76699713013E+02  0.12500000000E+03  0.80419002446E+02 0.  1.
        -24    1    1    2    0    0 -0.23366083007E+02  0.52239489223E+02 -0.76699713013E+02  0.12500000000E+03  0.80419002446E+02 0. -1.
</event>
<event>
 4    1  0.1699921E-001  0.1250000E+03  0.7546771E-02  0.1126479E+00
        -11   -1    0    0    0    0  0.00000000000E+00  0.00000000000E+00  0.12500000000E+03  0.12500000000E+03  0.00000000000E+00 0.  1.
         11   -1    0    0    0    0 -0.00000000000E+00 -0.00000000000E+00 -0.12500000000E+03  0.12500000000E+03  0.00000000000E+00 0. -1.
         24    1    1    2    0    0 -0.43844058719E+02 -0.23535664179E+02  0.81740779739E+02  0.12500000000E+03  0.80419002446E+02 0.  1.
        -24    1    1    2    0    0  0.43844058719E+02  0.23535664179E+02 -0.81740779739E+02  0.12500000000E+03  0.80419002446E+02 0. -1.
</event>
<event>
 4    1  0.1699921E-001  0.1250000E+03  0.7546771E-02  0.1126479E+00
        -11   -1    0    0    0    0  0.00000000000E+00  0.00000000000E+00  0.12500000000E+03  0.12500000000E+03  0.00000000000E+00 0.  1.
         11   -1    0    0    0    0 -0.00000000000E+00 -0.00000000000E+00 -0.12500000000E+03  0.12500000000E+03  0.00000000000E+00 0. -1.
         24    1    1    2    0    0  0.24244380583E+01 -0.58854612198E+02  0.75419100822E+02  0.12500000000E+03  0.80419002446E+02 0.  1.
        -24    1    1    2    0    0 -0.24244380583E+01  0.58854612198E+02 -0.75419100822E+02  0.12500000000E+03  0.80419002446E+02 0. -1.
</event>
<event>
 4    1  0.1699921E-001  0.1250000E+03  0.7546771E-02  0.1126479E+00
        -11   -1    0    0    0    0  0.00000000000E+00  0.00000000000E+00  0.12500000000E+03  0.12500000000E+03  0.00000000000E+00 0.  1.
         11   -1    0    0    0    0 -0.00000000000E+00 -0.00000000000E+00 -0.12500000000E+03  0.12500000000E+03  0.00000000000E+00 0. -1.
         24    1    1    2    0    0  0.21033939579E+02  0.13971795070E+02  0.92304638962E+02  0.12500000000E+03  0.80419002446E+02 0.  0.
        -24    1    1    2    0    0 -0.21033939579E+02 -0.13971795070E+02 -0.92304638962E+02  0.12500000000E+03  0.80419002446E+02 0. -1.
</event>
<event>
 4    1  0.1699921E-001  0.1250000E+03  0.7546771E-02  0.1126479E+00
        -11   -1    0    0    0    0  0.00000000000E+00  0.00000000000E+00  0.12500000000E+03  0.12500000000E+03  0.00000000000E+00 0.  1.
         11   -1    0    0    0    0 -0.00000000000E+00 -0.00000000000E+00 -0.12500000000E+03  0.12500000000E+03  0.00000000000E+00 0. -1.
         24    1    1    2    0    0  0.41114388330E+02 -0.52897768012E+01  0.86252010871E+02  0.12500000000E+03  0.80419002446E+02 0.  1.
        -24    1    1    2    0    0 -0.41114388330E+02  0.52897768012E+01 -0.86252010871E+02  0.12500000000E+03  0.80419002446E+02 0. -1.
</event>
<event>
 4    1  0.1699921E-001  0.1250000E+03  0.7546771E-02  0.1126479E+00
        -11   -1    0    0    0    0  0.00000000000E+00  0.00000000000E+00  0.12500000000E+03  0.12500000000E+03  0.00000000000E+00 0.  1.
         11   -1    0    0    0    0 -0.00000000000E+00 -0.00000000000E+00 -0.12500000000E+03  0.12500000000E+03  0.00000000000E+00 0. -1.
         24    1    1    2    0    0 -0.17445652596E+02  0.78229200984E-01  0.94092651846E+02  0.12500000000E+03  0.80419002446E+02 0.  1.
        -24    1    1    2    0    0  0.17445652596E+02 -0.78229200984E-01 -0.94092651846E+02  0.12500000000E+03  0.80419002446E+02 0. -1.
</event>
<event>
 4    1  0.1699921E-001  0.1250000E+03  0.7546771E-02  0.1126479E+00
        -11   -1    0    0    0    0  0.00000000000E+00  0.00000000000E+00  0.12500000000E+03  0.12500000000E+03  0.00000000000E+00 0.  1.
         11   -1    0    0    0    0 -0.00000000000E+00 -0.00000000000E+00 -0.12500000000E+03  0.12500000000E+03  0.00000000000E+00 0. -1.
         24    1    1    2    0    0 -0.87842423373E+02 -0.33667056730E+02  0.17550555337E+02  0.12500000000E+03  0.80419002446E+02 0. -1.
        -24    1    1    2    0    0  0.87842423373E+02  0.33667056730E+02 -0.17550555337E+02  0.12500000000E+03  0.80419002446E+02 0.  1.
</event>
<event>
 4    1  0.1699921E-001  0.1250000E+03  0.7546771E-02  0.1126479E+00
        -11   -1    0    0    0    0  0.00000000000E+00  0.00000000000E+00  0.12500000000E+03  0.12500000000E+03  0.00000000000E+00 0.  1.
         11   -1    0    0    0    0 -0.00000000000E+00 -0.00000000000E+00 -0.12500000000E+03  0.12500000000E+03  0.00000000000E+00 0. -1.
         24    1    1    2    0    0  0.53526623389E+02 -0.28422536656E+02  0.74059732947E+02  0.12500000000E+03  0.80419002446E+02 0.  1.
        -24    1    1    2    0    0 -0.53526623389E+02  0.28422536656E+02 -0.74059732947E+02  0.12500000000E+03  0.80419002446E+02 0. -1.
</event>
<event>
 4    1  0.1699921E-001  0.1250000E+03  0.7546771E-02  0.1126479E+00
        -11   -1    0    0    0    0  0.00000000000E+00  0.00000000000E+00  0.12500000000E+03  0.12500000000E+03  0.00000000000E+00 0.  1.
         11   -1    0    0    0    0 -0.00000000000E+00 -0.00000000000E+00 -0.12500000000E+03  0.12500000000E+03  0.00000000000E+00 0. -1.
         24    1    1    2    0    0  0.66337301070E+02 -0.41312014310E+02  0.55231005839E+02  0.12500000000E+03  0.80419002446E+02 0.  1.
        -24    1    1    2    0    0 -0.66337301070E+02  0.41312014310E+02 -0.55231005839E+02  0.12500000000E+03  0.80419002446E+02 0. -1.
</event>
<event>
 4    1  0.1699921E-001  0.1250000E+03  0.7546771E-02  0.1126479E+00
        -11   -1    0    0    0    0  0.00000000000E+00  0.00000000000E+00  0.12500000000E+03  0.12500000000E+03  0.00000000000E+00 0.  1.
         11   -1    0    0    0    0 -0.00000000000E+00 -0.00000000000E+00 -0.12500000000E+03  0.12500000000E+03  0.00000000000E+00 0. -1.
         24    1    1    2    0    0 -0.18806616863E+02 -0.21632353727E+02  0.91302445093E+02  0.12500000000E+03  0.80419002446E+02 0.  1.
        -24    1    1    2    0    0  0.18806616863E+02  0.21632353727E+02 -0.91302445093E+02  0.12500000000E+03  0.80419002446E+02 0. -1.
</event>
<event>
 4    1  0.1699921E-001  0.1250000E+03  0.7546771E-02  0.1126479E+00
        -11   -1    0    0    0    0  0.00000000000E+00  0.00000000000E+00  0.12500000000E+03  0.12500000000E+03  0.00000000000E+00 0.  1.
         11   -1    0    0    0    0 -0.00000000000E+00 -0.00000000000E+00 -0.12500000000E+03  0.12500000000E+03  0.00000000000E+00 0. -1.
         24    1    1    2    0    0  0.34854323526E+02  0.12104077626E+01  0.89115066572E+02  0.12500000000E+03  0.80419002446E+02 0.  0.
        -24    1    1    2    0    0 -0.34854323526E+02 -0.12104077626E+01 -0.89115066572E+02  0.12500000000E+03  0.80419002446E+02 0. -1.
</event>
<event>
 4    1  0.1699921E-001  0.1250000E+03  0.7546771E-02  0.1126479E+00
        -11   -1    0    0    0    0  0.00000000000E+00  0.00000000000E+00  0.12500000000E+03  0.12500000000E+03  0.00000000000E+00 0.  1.
         11   -1    0    0    0    0 -0.00000000000E+00 -0.00000000000E+00 -0.12500000000E+03  0.12500000000E+03  0.00000000000E+00 0. -1.
         24    1    1    2    0    0 -0.32456264887E+02  0.29922516853E+01  0.89974559433E+02  0.12500000000E+03  0.80419002446E+02 0.  1.
        -24    1    1    2    0    0  0.32456264887E+02 -0.29922516853E+01 -0.89974559433E+02  0.12500000000E+03  0.80419002446E+02 0. -1.
</event>
<event>
 4    1  0.1699921E-001  0.1250000E+03  0.7546771E-02  0.1126479E+00
        -11   -1    0    0    0    0  0.00000000000E+00  0.00000000000E+00  0.12500000000E+03  0.12500000000E+03  0.00000000000E+00 0.  1.
         11   -1    0    0    0    0 -0.00000000000E+00 -0.00000000000E+00 -0.12500000000E+03  0.12500000000E+03  0.00000000000E+00 0. -1.
         24    1    1    2    0    0  0.11122952151E+01  0.28603769915E+01  0.95647086147E+02  0.12500000000E+03  0.80419002446E+02 0.  1.
        -24    1    1    2    0    0 -0.11122952151E+01 -0.28603769915E+01 -0.95647086147E+02  0.12500000000E+03  0.80419002446E+02 0.  0.
</event>
<event>
 4    1  0.1699921E-001  0.1250000E+03  0.7546771E-02  0.1126479E+00
        -11   -1    0    0    0    0  0.00000000000E+00  0.00000000000E+00  0.12500000000E+03  0.12500000000E+03  0.00000000000E+00 0.  1.
         11   -1    0    0    0    0 -0.00000000000E+00 -0.00000000000E+00 -0.12500000000E+03  0.12500000000E+03  0.00000000000E+00 0. -1.
         24    1    1    2    0    0  0.58020311288E+02  0.14426452543E+02  0.74721516250E+02  0.12500000000E+03  0.80419002446E+02 0.  1.
        -24    1    1    2    0    0 -0.58020311288E+02 -0.14426452543E+02 -0.74721516250E+02  0.12500000000E+03  0.80419002446E+02 0. -1.
</event>
<event>
 4    1  0.1699921E-001  0.1250000E+03  0.7546771E-02  0.1126479E+00
        -11   -1    0    0    0    0  0.00000000000E+00  0.00000000000E+00  0.12500000000E+03  0.12500000000E+03  0.00000000000E+00 0.  1.
         11   -1    0    0    0    0 -0.00000000000E+00 -0.00000000000E+00 -0.12500000000E+03  0.12500000000E+03  0.00000000000E+00 0. -1.
         24    1    1    2    0    0  0.37076628354E+02 -0.36061681556E+02  0.80514984934E+02  0.12500000000E+03  0.80419002446E+02 0.  1.
        -24    1    1    2    0    0 -0.37076628354E+02  0.36061681556E+02 -0.80514984934E+02  0.12500000000E+03  0.80419002446E+02 0. -1.
</event>
<event>
 4    1  0.1699921E-001  0.1250000E+03  0.7546771E-02  0.1126479E+00
        -11   -1    0    0    0    0  0.00000000000E+00  0.00000000000E+00  0.12500000000E+03  0.12500000000E+03  0.00000000000E+00 0.  1.
         11   -1    0    0    0    0 -0.00000000000E+00 -0.00000000000E+00 -0.12500000000E+03  0.12500000000E+03  0.00000000000E+00 0. -1.
         24    1    1    2    0    0  0.23732521581E+02  0.61340267852E+01  0.92503649552E+02  0.12500000000E+03  0.80419002446E+02 0.  1.
        -24    1    1    2    0    0 -0.23732521581E+02 -0.61340267852E+01 -0.92503649552E+02  0.12500000000E+03  0.80419002446E+02 0. -1.
</event>
<event>
 4    1  0.1699921E-001  0.1250000E+03  0.7546771E-02  0.1126479E+00
        -11   -1    0    0    0    0  0.00000000000E+00  0.00000000000E+00  0.12500000000E+03  0.12500000000E+03  0.00000000000E+00 0.  1.
         11   -1    0    0    0    0 -0.00000000000E+00 -0.00000000000E+00 -0.12500000000E+03  0.12500000000E+03  0.00000000000E+00 0. -1.
         24    1    1    2    0    0 -0.32753489487E+02 -0.11448374945E+02  0.89184795134E+02  0.12500000000E+03  0.80419002446E+02 0.  1.
        -24    1    1    2    0    0  0.32753489487E+02  0.11448374945E+02 -0.89184795134E+02  0.12500000000E+03  0.80419002446E+02 0.  0.
</event>
<event>
 4    1  0.1699921E-001  0.1250000E+03  0.7546771E-02  0.1126479E+00
        -11   -1    0    0    0    0  0.00000000000E+00  0.00000000000E+00  0.12500000000E+03  0.12500000000E+03  0.00000000000E+00 0.  1.
         11   -1    0    0    0    0 -0.00000000000E+00 -0.00000000000E+00 -0.12500000000E+03  0.12500000000E+03  0.00000000000E+00 0. -1.
         24    1    1    2    0    0  0.35245316237E+02  0.82057355481E+02  0.34382293996E+02  0.12500000000E+03  0.80419002446E+02 0.  1.
        -24    1    1    2    0    0 -0.35245316237E+02 -0.82057355481E+02 -0.34382293996E+02  0.12500000000E+03  0.80419002446E+02 0. -1.
</event>
<event>
 4    1  0.1699921E-001  0.1250000E+03  0.7546771E-02  0.1126479E+00
        -11   -1    0    0    0    0  0.00000000000E+00  0.00000000000E+00  0.12500000000E+03  0.12500000000E+03  0.00000000000E+00 0.  1.
         11   -1    0    0    0    0 -0.00000000000E+00 -0.00000000000E+00 -0.12500000000E+03  0.12500000000E+03  0.00000000000E+00 0. -1.
         24    1    1    2    0    0  0.12452721702E+02  0.62288991593E+02  0.71573705327E+02  0.12500000000E+03  0.80419002446E+02 0.  1.
        -24    1    1    2    0    0 -0.12452721702E+02 -0.62288991593E+02 -0.71573705327E+02  0.12500000000E+03  0.80419002446E+02 0.  0.
</event>
<event>
 4    1  0.1699921E-001  0.1250000E+03  0.7546771E-02  0.1126479E+00
        -11   -1    0    0    0    0  0.00000000000E+00  0.00000000000E+00  0.12500000000E+03  0.12500000000E+03  0.00000000000E+00 0.  1.
         11   -1    0    0    0    0 -0.00000000000E+00 -0.00000000000E+00 -0.12500000000E+03  0.12500000000E+03  0.00000000000E+00 0. -1.
         24    1    1    2    0    0  0.47181125405E+02 -0.19696580358E+02  0.80893573128E+02  0.12500000000E+03  0.80419002446E+02 0.  1.
        -24    1    1    2    0    0 -0.47181125405E+02  0.19696580358E+02 -0.80893573128E+02  0.12500000000E+03  0.80419002446E+02 0. -1.
</event>
<event>
 4    1  0.1699921E-001  0.1250000E+03  0.7546771E-02  0.1126479E+00
        -11   -1    0    0    0    0  0.00000000000E+00  0.00000000000E+00  0.12500000000E+03  0.12500000000E+03  0.00000000000E+00 0.  1.
         11   -1    0    0    0    0 -0.00000000000E+00 -0.00000000000E+00 -0.12500000000E+03  0.12500000000E+03  0.00000000000E+00 0. -1.
         24    1    1    2    0    0 -0.50732761691E+02  0.42974560551E+02  0.68827015642E+02  0.12500000000E+03  0.80419002446E+02 0.  1.
        -24    1    1    2    0    0  0.50732761691E+02 -0.42974560551E+02 -0.68827015642E+02  0.12500000000E+03  0.80419002446E+02 0. -1.
</event>
<event>
 4    1  0.1699921E-001  0.1250000E+03  0.7546771E-02  0.1126479E+00
        -11   -1    0    0    0    0  0.00000000000E+00  0.00000000000E+00  0.12500000000E+03  0.12500000000E+03  0.00000000000E+00 0.  1.
         11   -1    0    0    0    0 -0.00000000000E+00 -0.00000000000E+00 -0.12500000000E+03  0.12500000000E+03  0.00000000000E+00 0. -1.
         24    1    1    2    0    0 -0.27656679029E+02  0.68467172403E+01  0.91356524746E+02  0.12500000000E+03  0.80419002446E+02 0.  1.
        -24    1    1    2    0    0  0.27656679029E+02 -0.68467172403E+01 -0.91356524746E+02  0.12500000000E+03  0.80419002446E+02 0. -1.
</event>
<event>
 4    1  0.1699921E-001  0.1250000E+03  0.7546771E-02  0.1126479E+00
        -11   -1    0    0    0    0  0.00000000000E+00  0.00000000000E+00  0.12500000000E+03  0.12500000000E+03  0.00000000000E+00 0.  1.
         11   -1    0    0    0    0 -0.00000000000E+00 -0.00000000000E+00 -0.12500000000E+03  0.12500000000E+03  0.00000000000E+00 0. -1.
         24    1    1    2    0    0 -0.36633932256E+02  0.89817851367E+01  0.87949227335E+02  0.12500000000E+03  0.80419002446E+02 0.  0.
        -24    1    1    2    0    0  0.36633932256E+02 -0.89817851367E+01 -0.87949227335E+02  0.12500000000E+03  0.80419002446E+02 0.  0.
</event>
<event>
 4    1  0.1699921E-001  0.1250000E+03  0.7546771E-02  0.1126479E+00
        -11   -1    0    0    0    0  0.00000000000E+00  0.00000000000E+00  0.12500000000E+03  0.12500000000E+03  0.00000000000E+00 0.  1.
         11   -1    0    0    0    0 -0.00000000000E+00 -0.00000000000E+00 -0.12500000000E+03  0.12500000000E+03  0.00000000000E+00 0. -1.
         24    1    1    2    0    0 -0.51894128102E+02  0.33393917938E+01  0.80334500537E+02  0.12500000000E+03  0.80419002446E+02 0.  1.
        -24    1    1    2    0    0  0.51894128102E+02 -0.33393917938E+01 -0.80334500537E+02  0.12500000000E+03  0.80419002446E+02 0.  1.
</event>
<event>
 4    1  0.1699921E-001  0.1250000E+03  0.7546771E-02  0.1126479E+00
        -11   -1    0    0    0    0  0.00000000000E+00  0.00000000000E+00  0.12500000000E+03  0.12500000000E+03  0.00000000000E+00 0.  1.
         11   -1    0    0    0    0 -0.00000000000E+00 -0.00000000000E+00 -0.12500000000E+03  0.12500000000E+03  0.00000000000E+00 0. -1.
         24    1    1    2    0    0  0.21998857014E+02 -0.74949155264E+02  0.55285246322E+02  0.12500000000E+03  0.80419002446E+02 0.  1.
        -24    1    1    2    0    0 -0.21998857014E+02  0.74949155264E+02 -0.55285246322E+02  0.12500000000E+03  0.80419002446E+02 0. -1.
</event>
<event>
 4    1  0.1699921E-001  0.1250000E+03  0.7546771E-02  0.1126479E+00
        -11   -1    0    0    0    0  0.00000000000E+00  0.00000000000E+00  0.12500000000E+03  0.12500000000E+03  0.00000000000E+00 0.  1.
         11   -1    0    0    0    0 -0.00000000000E+00 -0.00000000000E+00 -0.12500000000E+03  0.12500000000E+03  0.00000000000E+00 0. -1.
         24    1    1    2    0    0 -0.75938774128E+02 -0.46018927463E+02  0.35683959208E+02  0.12500000000E+03  0.80419002446E+02 0.  1.
        -24    1    1    2    0    0  0.75938774128E+02  0.46018927463E+02 -0.35683959208E+02  0.12500000000E+03  0.80419002446E+02 0. -1.
</event>
<event>
 4    1  0.1699921E-001  0.1250000E+03  0.7546771E-02  0.1126479E+00
        -11   -1    0    0    0    0  0.00000000000E+00  0.00000000000E+00  0.12500000000E+03  0.12500000000E+03  0.00000000000E+00 0.  1.
         11   -1    0    0    0    0 -0.00000000000E+00 -0.00000000000E+00 -0.12500000000E+03  0.12500000000E+03  0.00000000000E+00 0. -1.
         24    1    1    2    0    0 -0.27519261548E+02 -0.18349980328E+02  0.89798399270E+02  0.12500000000E+03  0.80419002446E+02 0.  1.
        -24    1    1    2    0    0  0.27519261548E+02  0.18349980328E+02 -0.89798399270E+02  0.12500000000E+03  0.80419002446E+02 0. -1.
</event>
<event>
 4    1  0.1699921E-001  0.1250000E+03  0.7546771E-02  0.1126479E+00
        -11   -1    0    0    0    0  0.00000000000E+00  0.00000000000E+00  0.12500000000E+03  0.12500000000E+03  0.00000000000E+00 0.  1.
         11   -1    0    0    0    0 -0.00000000000E+00 -0.00000000000E+00 -0.12500000000E+03  0.12500000000E+03  0.00000000000E+00 0. -1.
         24    1    1    2    0    0 -0.15333087428E+02  0.96971045256E+01  0.93960878239E+02  0.12500000000E+03  0.80419002446E+02 0.  1.
        -24    1    1    2    0    0  0.15333087428E+02 -0.96971045256E+01 -0.93960878239E+02  0.12500000000E+03  0.80419002446E+02 0. -1.
</event>
<event>
 4    1  0.1699921E-001  0.1250000E+03  0.7546771E-02  0.1126479E+00
        -11   -1    0    0    0    0  0.00000000000E+00  0.00000000000E+00  0.12500000000E+03  0.12500000000E+03  0.00000000000E+00 0.  1.
         11   -1    0    0    0    0 -0.00000000000E+00 -0.00000000000E+00 -0.12500000000E+03  0.12500000000E+03  0.00000000000E+00 0. -1.
         24    1    1    2    0    0 -0.17962679750E+02  0.55545173362E+02  0.75827830630E+02  0.12500000000E+03  0.80419002446E+02 0.  1.
        -24    1    1    2    0    0  0.17962679750E+02 -0.55545173362E+02 -0.75827830630E+02  0.12500000000E+03  0.80419002446E+02 0. -1.
</event>
<event>
 4    1  0.1699921E-001  0.1250000E+03  0.7546771E-02  0.1126479E+00
        -11   -1    0    0    0    0  0.00000000000E+00  0.00000000000E+00  0.12500000000E+03  0.12500000000E+03  0.00000000000E+00 0.  1.
         11   -1    0    0    0    0 -0.00000000000E+00 -0.00000000000E+00 -0.12500000000E+03  0.12500000000E+03  0.00000000000E+00 0. -1.
         24    1    1    2    0    0 -0.26739104938E+02  0.37481660206E+02  0.83892368312E+02  0.12500000000E+03  0.80419002446E+02 0.  1.
        -24    1    1    2    0    0  0.26739104938E+02 -0.37481660206E+02 -0.83892368312E+02  0.12500000000E+03  0.80419002446E+02 0. -1.
</event>
<event>
 4    1  0.1699921E-001  0.1250000E+03  0.7546771E-02  0.1126479E+00
        -11   -1    0    0    0    0  0.00000000000E+00  0.00000000000E+00  0.12500000000E+03  0.12500000000E+03  0.00000000000E+00 0.  1.
         11   -1    0    0    0    0 -0.00000000000E+00 -0.00000000000E+00 -0.12500000000E+03  0.12500000000E+03  0.00000000000E+00 0. -1.
         24    1    1    2    0    0  0.44830357342E+01 -0.19920030680E+02  0.93492667167E+02  0.12500000000E+03  0.80419002446E+02 0.  0.
        -24    1    1    2    0    0 -0.44830357342E+01  0.19920030680E+02 -0.93492667167E+02  0.12500000000E+03  0.80419002446E+02 0. -1.
</event>
<event>
 4    1  0.1699921E-001  0.1250000E+03  0.7546771E-02  0.1126479E+00
        -11   -1    0    0    0    0  0.00000000000E+00  0.00000000000E+00  0.12500000000E+03  0.12500000000E+03  0.00000000000E+00 0.  1.
         11   -1    0    0    0    0 -0.00000000000E+00 -0.00000000000E+00 -0.12500000000E+03  0.12500000000E+03  0.00000000000E+00 0. -1.
         24    1    1    2    0    0 -0.57269688853E+02 -0.13959628483E+02  0.75386308817E+02  0.12500000000E+03  0.80419002446E+02 0.  1.
        -24    1    1    2    0    0  0.57269688853E+02  0.13959628483E+02 -0.75386308817E+02  0.12500000000E+03  0.80419002446E+02 0. -1.
</event>
<event>
 4    1  0.1699921E-001  0.1250000E+03  0.7546771E-02  0.1126479E+00
        -11   -1    0    0    0    0  0.00000000000E+00  0.00000000000E+00  0.12500000000E+03  0.12500000000E+03  0.00000000000E+00 0.  1.
         11   -1    0    0    0    0 -0.00000000000E+00 -0.00000000000E+00 -0.12500000000E+03  0.12500000000E+03  0.00000000000E+00 0. -1.
         24    1    1    2    0    0 -0.58127250930E+02 -0.36947262815E+02  0.66437237416E+02  0.12500000000E+03  0.80419002446E+02 0.  1.
        -24    1    1    2    0    0  0.58127250930E+02  0.36947262815E+02 -0.66437237416E+02  0.12500000000E+03  0.80419002446E+02 0. -1.
</event>
<event>
 4    1  0.1699921E-001  0.1250000E+03  0.7546771E-02  0.1126479E+00
        -11   -1    0    0    0    0  0.00000000000E+00  0.00000000000E+00  0.12500000000E+03  0.12500000000E+03  0.00000000000E+00 0.  1.
         11   -1    0    0    0    0 -0.00000000000E+00 -0.00000000000E+00 -0.12500000000E+03  0.12500000000E+03  0.00000000000E+00 0. -1.
         24    1    1    2    0    0 -0.35763036237E+02 -0.74096134337E+02 -0.48872816177E+02  0.12500000000E+03  0.80419002446E+02 0. -1.
        -24    1    1    2    0    0  0.35763036237E+02  0.74096134337E+02  0.48872816177E+02  0.12500000000E+03  0.80419002446E+02 0.  1.
</event>
<event>
 4    1  0.1699921E-001  0.1250000E+03  0.7546771E-02  0.1126479E+00
        -11   -1    0    0    0    0  0.00000000000E+00  0.00000000000E+00  0.12500000000E+03  0.12500000000E+03  0.00000000000E+00 0.  1.
         11   -1    0    0    0    0 -0.00000000000E+00 -0.00000000000E+00 -0.12500000000E+03  0.12500000000E+03  0.00000000000E+00 0. -1.
         24    1    1    2    0    0 -0.82043478898E+02 -0.48867515522E+02 -0.62143014649E+01  0.12500000000E+03  0.80419002446E+02 0.  1.
        -24    1    1    2    0    0  0.82043478898E+02  0.48867515522E+02  0.62143014649E+01  0.12500000000E+03  0.80419002446E+02 0. -1.
</event>
<event>
 4    1  0.1699921E-001  0.1250000E+03  0.7546771E-02  0.1126479E+00
        -11   -1    0    0    0    0  0.00000000000E+00  0.00000000000E+00  0.12500000000E+03  0.12500000000E+03  0.00000000000E+00 0.  1.
         11   -1    0    0    0    0 -0.00000000000E+00 -0.00000000000E+00 -0.12500000000E+03  0.12500000000E+03  0.00000000000E+00 0. -1.
         24    1    1    2    0    0 -0.71123533080E+01  0.17540264948E+02  0.93805850466E+02  0.12500000000E+03  0.80419002446E+02 0.  1.
        -24    1    1    2    0    0  0.71123533080E+01 -0.17540264948E+02 -0.93805850466E+02  0.12500000000E+03  0.80419002446E+02 0.  0.
</event>
<event>
 4    1  0.1699921E-001  0.1250000E+03  0.7546771E-02  0.1126479E+00
        -11   -1    0    0    0    0  0.00000000000E+00  0.00000000000E+00  0.12500000000E+03  0.12500000000E+03  0.00000000000E+00 0.  1.
         11   -1    0    0    0    0 -0.00000000000E+00 -0.00000000000E+00 -0.12500000000E+03  0.12500000000E+03  0.00000000000E+00 0. -1.
         24    1    1    2    0    0 -0.43061268557E+02 -0.53465859159E+02  0.66670181493E+02  0.12500000000E+03  0.80419002446E+02 0.  1.
        -24    1    1    2    0    0  0.43061268557E+02  0.53465859159E+02 -0.66670181493E+02  0.12500000000E+03  0.80419002446E+02 0. -1.
</event>
<event>
 4    1  0.1699921E-001  0.1250000E+03  0.7546771E-02  0.1126479E+00
        -11   -1    0    0    0    0  0.00000000000E+00  0.00000000000E+00  0.12500000000E+03  0.12500000000E+03  0.00000000000E+00 0.  1.
         11   -1    0    0    0    0 -0.00000000000E+00 -0.00000000000E+00 -0.12500000000E+03  0.12500000000E+03  0.00000000000E+00 0. -1.
         24    1    1    2    0    0  0.15925883230E+02 -0.41878513014E+02  0.84559685647E+02  0.12500000000E+03  0.80419002446E+02 0.  1.
        -24    1    1    2    0    0 -0.15925883230E+02  0.41878513014E+02 -0.84559685647E+02  0.12500000000E+03  0.80419002446E+02 0. -1.
</event>
<event>
 4    1  0.1699921E-001  0.1250000E+03  0.7546771E-02  0.1126479E+00
        -11   -1    0    0    0    0  0.00000000000E+00  0.00000000000E+00  0.12500000000E+03  0.12500000000E+03  0.00000000000E+00 0.  1.
         11   -1    0    0    0    0 -0.00000000000E+00 -0.00000000000E+00 -0.12500000000E+03  0.12500000000E+03  0.00000000000E+00 0. -1.
         24    1    1    2    0    0  0.75404944834E+02  0.42820285382E+02  0.40475937298E+02  0.12500000000E+03  0.80419002446E+02 0. -1.
        -24    1    1    2    0    0 -0.75404944834E+02 -0.42820285382E+02 -0.40475937298E+02  0.12500000000E+03  0.80419002446E+02 0.  0.
</event>
<event>
 4    1  0.1699921E-001  0.1250000E+03  0.7546771E-02  0.1126479E+00
        -11   -1    0    0    0    0  0.00000000000E+00  0.00000000000E+00  0.12500000000E+03  0.12500000000E+03  0.00000000000E+00 0.  1.
         11   -1    0    0    0    0 -0.00000000000E+00 -0.00000000000E+00 -0.12500000000E+03  0.12500000000E+03  0.00000000000E+00 0. -1.
         24    1    1    2    0    0  0.26377658505E+02  0.19195023873E+02  0.89964183073E+02  0.12500000000E+03  0.80419002446E+02 0.  1.
        -24    1    1    2    0    0 -0.26377658505E+02 -0.19195023873E+02 -0.89964183073E+02  0.12500000000E+03  0.80419002446E+02 0. -1.
</event>
<event>
 4    1  0.1699921E-001  0.1250000E+03  0.7546771E-02  0.1126479E+00
        -11   -1    0    0    0    0  0.00000000000E+00  0.00000000000E+00  0.12500000000E+03  0.12500000000E+03  0.00000000000E+00 0.  1.
         11   -1    0    0    0    0 -0.00000000000E+00 -0.00000000000E+00 -0.12500000000E+03  0.12500000000E+03  0.00000000000E+00 0. -1.
         24    1    1    2    0    0 -0.24324676170E+02  0.53512954149E+02  0.75514620525E+02  0.12500000000E+03  0.80419002446E+02 0.  1.
        -24    1    1    2    0    0  0.24324676170E+02 -0.53512954149E+02 -0.75514620525E+02  0.12500000000E+03  0.80419002446E+02 0. -1.
</event>
<event>
 4    1  0.1699921E-001  0.1250000E+03  0.7546771E-02  0.1126479E+00
        -11   -1    0    0    0    0  0.00000000000E+00  0.00000000000E+00  0.12500000000E+03  0.12500000000E+03  0.00000000000E+00 0.  1.
         11   -1    0    0    0    0 -0.00000000000E+00 -0.00000000000E+00 -0.12500000000E+03  0.12500000000E+03  0.00000000000E+00 0. -1.
         24    1    1    2    0    0  0.35779192969E+02  0.79527922418E+02 -0.39407397173E+02  0.12500000000E+03  0.80419002446E+02 0. -1.
        -24    1    1    2    0    0 -0.35779192969E+02 -0.79527922418E+02  0.39407397173E+02  0.12500000000E+03  0.80419002446E+02 0.  1.
</event>
<event>
 4    1  0.1699921E-001  0.1250000E+03  0.7546771E-02  0.1126479E+00
        -11   -1    0    0    0    0  0.00000000000E+00  0.00000000000E+00  0.12500000000E+03  0.12500000000E+03  0.00000000000E+00 0.  1.
         11   -1    0    0    0    0 -0.00000000000E+00 -0.00000000000E+00 -0.12500000000E+03  0.12500000000E+03  0.00000000000E+00 0. -1.
         24    1    1    2    0    0  0.71378838488E+01 -0.38651067550E+02 -0.87252103912E+02  0.12500000000E+03  0.80419002446E+02 0. -1.
        -24    1    1    2    0    0 -0.71378838488E+01  0.38651067550E+02  0.87252103912E+02  0.12500000000E+03  0.80419002446E+02 0.  1.
</event>
<event>
 4    1  0.1699921E-001  0.1250000E+03  0.7546771E-02  0.1126479E+00
        -11   -1    0    0    0    0  0.00000000000E+00  0.00000000000E+00  0.12500000000E+03  0.12500000000E+03  0.00000000000E+00 0.  1.
         11   -1    0    0    0    0 -0.00000000000E+00 -0.00000000000E+00 -0.12500000000E+03  0.12500000000E+03  0.00000000000E+00 0. -1.
         24    1    1    2    0    0 -0.52200569909E+02  0.50372273641E+02  0.62414089715E+02  0.12500000000E+03  0.80419002446E+02 0.  1.
        -24    1    1    2    0    0  0.52200569909E+02 -0.50372273641E+02 -0.62414089715E+02  0.12500000000E+03  0.80419002446E+02 0. -1.
</event>
<event>
 4    1  0.1699921E-001  0.1250000E+03  0.7546771E-02  0.1126479E+00
        -11   -1    0    0    0    0  0.00000000000E+00  0.00000000000E+00  0.12500000000E+03  0.12500000000E+03  0.00000000000E+00 0.  1.
         11   -1    0    0    0    0 -0.00000000000E+00 -0.00000000000E+00 -0.12500000000E+03  0.12500000000E+03  0.00000000000E+00 0. -1.
         24    1    1    2    0    0 -0.95854077117E+01  0.71515393983E+02  0.62860579285E+02  0.12500000000E+03  0.80419002446E+02 0.  1.
        -24    1    1    2    0    0  0.95854077117E+01 -0.71515393983E+02 -0.62860579285E+02  0.12500000000E+03  0.80419002446E+02 0. -1.
</event>
<event>
 4    1  0.1699921E-001  0.1250000E+03  0.7546771E-02  0.1126479E+00
        -11   -1    0    0    0    0  0.00000000000E+00  0.00000000000E+00  0.12500000000E+03  0.12500000000E+03  0.00000000000E+00 0.  1.
         11   -1    0    0    0    0 -0.00000000000E+00 -0.00000000000E+00 -0.12500000000E+03  0.12500000000E+03  0.00000000000E+00 0. -1.
         24    1    1    2    0    0  0.84719929186E+01  0.95296435411E+02  0.21444765193E+01  0.12500000000E+03  0.80419002446E+02 0. -1.
        -24    1    1    2    0    0 -0.84719929186E+01 -0.95296435411E+02 -0.21444765193E+01  0.12500000000E+03  0.80419002446E+02 0.  1.
</event>
<event>
 4    1  0.1699921E-001  0.1250000E+03  0.7546771E-02  0.1126479E+00
        -11   -1    0    0    0    0  0.00000000000E+00  0.00000000000E+00  0.12500000000E+03  0.12500000000E+03  0.00000000000E+00 0.  1.
         11   -1    0    0    0    0 -0.00000000000E+00 -0.00000000000E+00 -0.12500000000E+03  0.12500000000E+03  0.00000000000E+00 0. -1.
         24    1    1    2    0    0 -0.82799652125E+01  0.32609193509E+02  0.89587201767E+02  0.12500000000E+03  0.80419002446E+02 0.  1.
        -24    1    1    2    0    0  0.82799652125E+01 -0.32609193509E+02 -0.89587201767E+02  0.12500000000E+03  0.80419002446E+02 0. -1.
</event>
<event>
 4    1  0.1699921E-001  0.1250000E+03  0.7546771E-02  0.1126479E+00
        -11   -1    0    0    0    0  0.00000000000E+00  0.00000000000E+00  0.12500000000E+03  0.12500000000E+03  0.00000000000E+00 0.  1.
         11   -1    0    0    0    0 -0.00000000000E+00 -0.00000000000E+00 -0.12500000000E+03  0.12500000000E+03  0.00000000000E+00 0. -1.
         24    1    1    2    0    0 -0.56474664072E+02  0.67397637512E+02  0.37761816976E+02  0.12500000000E+03  0.80419002446E+02 0.  1.
        -24    1    1    2    0    0  0.56474664072E+02 -0.67397637512E+02 -0.37761816976E+02  0.12500000000E+03  0.80419002446E+02 0. -1.
</event>
<event>
 4    1  0.1699921E-001  0.1250000E+03  0.7546771E-02  0.1126479E+00
        -11   -1    0    0    0    0  0.00000000000E+00  0.00000000000E+00  0.12500000000E+03  0.12500000000E+03  0.00000000000E+00 0.  1.
         11   -1    0    0    0    0 -0.00000000000E+00 -0.00000000000E+00 -0.12500000000E+03  0.12500000000E+03  0.00000000000E+00 0. -1.
         24    1    1    2    0    0 -0.15234349160E+02 -0.27932418405E+02  0.90252305529E+02  0.12500000000E+03  0.80419002446E+02 0.  1.
        -24    1    1    2    0    0  0.15234349160E+02  0.27932418405E+02 -0.90252305529E+02  0.12500000000E+03  0.80419002446E+02 0. -1.
</event>
<event>
 4    1  0.1699921E-001  0.1250000E+03  0.7546771E-02  0.1126479E+00
        -11   -1    0    0    0    0  0.00000000000E+00  0.00000000000E+00  0.12500000000E+03  0.12500000000E+03  0.00000000000E+00 0.  1.
         11   -1    0    0    0    0 -0.00000000000E+00 -0.00000000000E+00 -0.12500000000E+03  0.12500000000E+03  0.00000000000E+00 0. -1.
         24    1    1    2    0    0  0.61699359691E+01 -0.26679168546E+02  0.91694808476E+02  0.12500000000E+03  0.80419002446E+02 0.  1.
        -24    1    1    2    0    0 -0.61699359691E+01  0.26679168546E+02 -0.91694808476E+02  0.12500000000E+03  0.80419002446E+02 0. -1.
</event>
<event>
 4    1  0.1699921E-001  0.1250000E+03  0.7546771E-02  0.1126479E+00
        -11   -1    0    0    0    0  0.00000000000E+00  0.00000000000E+00  0.12500000000E+03  0.12500000000E+03  0.00000000000E+00 0.  1.
         11   -1    0    0    0    0 -0.00000000000E+00 -0.00000000000E+00 -0.12500000000E+03  0.12500000000E+03  0.00000000000E+00 0. -1.
         24    1    1    2    0    0  0.53570221676E+02 -0.79077384766E+02 -0.58976786772E+01  0.12500000000E+03  0.80419002446E+02 0.  1.
        -24    1    1    2    0    0 -0.53570221676E+02  0.79077384766E+02  0.58976786772E+01  0.12500000000E+03  0.80419002446E+02 0. -1.
</event>
<event>
 4    1  0.1699921E-001  0.1250000E+03  0.7546771E-02  0.1126479E+00
        -11   -1    0    0    0    0  0.00000000000E+00  0.00000000000E+00  0.12500000000E+03  0.12500000000E+03  0.00000000000E+00 0.  1.
         11   -1    0    0    0    0 -0.00000000000E+00 -0.00000000000E+00 -0.12500000000E+03  0.12500000000E+03  0.00000000000E+00 0. -1.
         24    1    1    2    0    0  0.15789933596E+02  0.68688148282E+02  0.64733301540E+02  0.12500000000E+03  0.80419002446E+02 0.  1.
        -24    1    1    2    0    0 -0.15789933596E+02 -0.68688148282E+02 -0.64733301540E+02  0.12500000000E+03  0.80419002446E+02 0. -1.
</event>
<event>
 4    1  0.1699921E-001  0.1250000E+03  0.7546771E-02  0.1126479E+00
        -11   -1    0    0    0    0  0.00000000000E+00  0.00000000000E+00  0.12500000000E+03  0.12500000000E+03  0.00000000000E+00 0.  1.
         11   -1    0    0    0    0 -0.00000000000E+00 -0.00000000000E+00 -0.12500000000E+03  0.12500000000E+03  0.00000000000E+00 0. -1.
         24    1    1    2    0    0  0.25013158350E+01  0.99310677887E+01  0.95146735926E+02  0.12500000000E+03  0.80419002446E+02 0.  1.
        -24    1    1    2    0    0 -0.25013158350E+01 -0.99310677887E+01 -0.95146735926E+02  0.12500000000E+03  0.80419002446E+02 0.  0.
</event>
<event>
 4    1  0.1699921E-001  0.1250000E+03  0.7546771E-02  0.1126479E+00
        -11   -1    0    0    0    0  0.00000000000E+00  0.00000000000E+00  0.12500000000E+03  0.12500000000E+03  0.00000000000E+00 0.  1.
         11   -1    0    0    0    0 -0.00000000000E+00 -0.00000000000E+00 -0.12500000000E+03  0.12500000000E+03  0.00000000000E+00 0. -1.
         24    1    1    2    0    0 -0.86923786550E+02 -0.32468184531E+01  0.39893577772E+02  0.12500000000E+03  0.80419002446E+02 0.  1.
        -24    1    1    2    0    0  0.86923786550E+02  0.32468184531E+01 -0.39893577772E+02  0.12500000000E+03  0.80419002446E+02 0. -1.
</event>
<event>
 4    1  0.1699921E-001  0.1250000E+03  0.7546771E-02  0.1126479E+00
        -11   -1    0    0    0    0  0.00000000000E+00  0.00000000000E+00  0.12500000000E+03  0.12500000000E+03  0.00000000000E+00 0.  1.
         11   -1    0    0    0    0 -0.00000000000E+00 -0.00000000000E+00 -0.12500000000E+03  0.12500000000E+03  0.00000000000E+00 0. -1.
         24    1    1    2    0    0  0.13021562668E+02 -0.61884775438E+01  0.94604046938E+02  0.12500000000E+03  0.80419002446E+02 0.  1.
        -24    1    1    2    0    0 -0.13021562668E+02  0.61884775438E+01 -0.94604046938E+02  0.12500000000E+03  0.80419002446E+02 0.  0.
</event>
<event>
 4    1  0.1699921E-001  0.1250000E+03  0.7546771E-02  0.1126479E+00
        -11   -1    0    0    0    0  0.00000000000E+00  0.00000000000E+00  0.12500000000E+03  0.12500000000E+03  0.00000000000E+00 0.  1.
         11   -1    0    0    0    0 -0.00000000000E+00 -0.00000000000E+00 -0.12500000000E+03  0.12500000000E+03  0.00000000000E+00 0. -1.
         24    1    1    2    0    0  0.10518509687E+02  0.67552595789E+02 -0.66961121569E+02  0.12500000000E+03  0.80419002446E+02 0.  0.
        -24    1    1    2    0    0 -0.10518509687E+02 -0.67552595789E+02  0.66961121569E+02  0.12500000000E+03  0.80419002446E+02 0.  0.
</event>
<event>
 4    1  0.1699921E-001  0.1250000E+03  0.7546771E-02  0.1126479E+00
        -11   -1    0    0    0    0  0.00000000000E+00  0.00000000000E+00  0.12500000000E+03  0.12500000000E+03  0.00000000000E+00 0.  1.
         11   -1    0    0    0    0 -0.00000000000E+00 -0.00000000000E+00 -0.12500000000E+03  0.12500000000E+03  0.00000000000E+00 0. -1.
         24    1    1    2    0    0  0.45247697297E+02  0.24701076636E+02  0.80624355799E+02  0.12500000000E+03  0.80419002446E+02 0.  1.
        -24    1    1    2    0    0 -0.45247697297E+02 -0.24701076636E+02 -0.80624355799E+02  0.12500000000E+03  0.80419002446E+02 0. -1.
</event>
<event>
 4    1  0.1699921E-001  0.1250000E+03  0.7546771E-02  0.1126479E+00
        -11   -1    0    0    0    0  0.00000000000E+00  0.00000000000E+00  0.12500000000E+03  0.12500000000E+03  0.00000000000E+00 0.  1.
         11   -1    0    0    0    0 -0.00000000000E+00 -0.00000000000E+00 -0.12500000000E+03  0.12500000000E+03  0.00000000000E+00 0. -1.
         24    1    1    2    0    0 -0.30225996521E+02 -0.85470510876E+02  0.30642534988E+02  0.12500000000E+03  0.80419002446E+02 0.  0.
        -24    1    1    2    0    0  0.30225996521E+02  0.85470510876E+02 -0.30642534988E+02  0.12500000000E+03  0.80419002446E+02 0. -1.
</event>
<event>
 4    1  0.1699921E-001  0.1250000E+03  0.7546771E-02  0.1126479E+00
        -11   -1    0    0    0    0  0.00000000000E+00  0.00000000000E+00  0.12500000000E+03  0.12500000000E+03  0.00000000000E+00 0.  1.
         11   -1    0    0    0    0 -0.00000000000E+00 -0.00000000000E+00 -0.12500000000E+03  0.12500000000E+03  0.00000000000E+00 0. -1.
         24    1    1    2    0    0  0.54052118723E+02  0.32879684422E+02  0.71798877843E+02  0.12500000000E+03  0.80419002446E+02 0.  1.
        -24    1    1    2    0    0 -0.54052118723E+02 -0.32879684422E+02 -0.71798877843E+02  0.12500000000E+03  0.80419002446E+02 0. -1.
</event>
<event>
 4    1  0.1699921E-001  0.1250000E+03  0.7546771E-02  0.1126479E+00
        -11   -1    0    0    0    0  0.00000000000E+00  0.00000000000E+00  0.12500000000E+03  0.12500000000E+03  0.00000000000E+00 0.  1.
         11   -1    0    0    0    0 -0.00000000000E+00 -0.00000000000E+00 -0.12500000000E+03  0.12500000000E+03  0.00000000000E+00 0. -1.
         24    1    1    2    0    0  0.19159875247E+01  0.32130146256E+02  0.90120845197E+02  0.12500000000E+03  0.80419002446E+02 0.  1.
        -24    1    1    2    0    0 -0.19159875247E+01 -0.32130146256E+02 -0.90120845197E+02  0.12500000000E+03  0.80419002446E+02 0. -1.
</event>
<event>
 4    1  0.1699921E-001  0.1250000E+03  0.7546771E-02  0.1126479E+00
        -11   -1    0    0    0    0  0.00000000000E+00  0.00000000000E+00  0.12500000000E+03  0.12500000000E+03  0.00000000000E+00 0.  1.
         11   -1    0    0    0    0 -0.00000000000E+00 -0.00000000000E+00 -0.12500000000E+03  0.12500000000E+03  0.00000000000E+00 0. -1.
         24    1    1    2    0    0 -0.64525636976E+02  0.69067485942E+02 -0.14963575916E+02  0.12500000000E+03  0.80419002446E+02 0.  1.
        -24    1    1    2    0    0  0.64525636976E+02 -0.69067485942E+02  0.14963575916E+02  0.12500000000E+03  0.80419002446E+02 0. -1.
</event>
<event>
 4    1  0.1699921E-001  0.1250000E+03  0.7546771E-02  0.1126479E+00
        -11   -1    0    0    0    0  0.00000000000E+00  0.00000000000E+00  0.12500000000E+03  0.12500000000E+03  0.00000000000E+00 0.  1.
         11   -1    0    0    0    0 -0.00000000000E+00 -0.00000000000E+00 -0.12500000000E+03  0.12500000000E+03  0.00000000000E+00 0. -1.
         24    1    1    2    0    0  0.43152291027E+01 -0.34359116416E+02  0.89211064126E+02  0.12500000000E+03  0.80419002446E+02 0.  1.
        -24    1    1    2    0    0 -0.43152291027E+01  0.34359116416E+02 -0.89211064126E+02  0.12500000000E+03  0.80419002446E+02 0. -1.
</event>
<event>
 4    1  0.1699921E-001  0.1250000E+03  0.7546771E-02  0.1126479E+00
        -11   -1    0    0    0    0  0.00000000000E+00  0.00000000000E+00  0.12500000000E+03  0.12500000000E+03  0.00000000000E+00 0.  1.
         11   -1    0    0    0    0 -0.00000000000E+00 -0.00000000000E+00 -0.12500000000E+03  0.12500000000E+03  0.00000000000E+00 0. -1.
         24    1    1    2    0    0  0.31116078802E+02 -0.61104081188E+02  0.66752265488E+02  0.12500000000E+03  0.80419002446E+02 0.  1.
        -24    1    1    2    0    0 -0.31116078802E+02  0.61104081188E+02 -0.66752265488E+02  0.12500000000E+03  0.80419002446E+02 0. -1.
</event>
<event>
 4    1  0.1699921E-001  0.1250000E+03  0.7546771E-02  0.1126479E+00
        -11   -1    0    0    0    0  0.00000000000E+00  0.00000000000E+00  0.12500000000E+03  0.12500000000E+03  0.00000000000E+00 0.  1.
         11   -1    0    0    0    0 -0.00000000000E+00 -0.00000000000E+00 -0.12500000000E+03  0.12500000000E+03  0.00000000000E+00 0. -1.
         24    1    1    2    0    0 -0.95289406241E+02 -0.74105871317E+01  0.47745473420E+01  0.12500000000E+03  0.80419002446E+02 0.  1.
        -24    1    1    2    0    0  0.95289406241E+02  0.74105871317E+01 -0.47745473420E+01  0.12500000000E+03  0.80419002446E+02 0. -1.
</event>
<event>
 4    1  0.1699921E-001  0.1250000E+03  0.7546771E-02  0.1126479E+00
        -11   -1    0    0    0    0  0.00000000000E+00  0.00000000000E+00  0.12500000000E+03  0.12500000000E+03  0.00000000000E+00 0.  1.
         11   -1    0    0    0    0 -0.00000000000E+00 -0.00000000000E+00 -0.12500000000E+03  0.12500000000E+03  0.00000000000E+00 0. -1.
         24    1    1    2    0    0 -0.15020489452E+02  0.41296963906E+02  0.85010174182E+02  0.12500000000E+03  0.80419002446E+02 0.  1.
        -24    1    1    2    0    0  0.15020489452E+02 -0.41296963906E+02 -0.85010174182E+02  0.12500000000E+03  0.80419002446E+02 0. -1.
</event>
<event>
 4    1  0.1699921E-001  0.1250000E+03  0.7546771E-02  0.1126479E+00
        -11   -1    0    0    0    0  0.00000000000E+00  0.00000000000E+00  0.12500000000E+03  0.12500000000E+03  0.00000000000E+00 0.  1.
         11   -1    0    0    0    0 -0.00000000000E+00 -0.00000000000E+00 -0.12500000000E+03  0.12500000000E+03  0.00000000000E+00 0. -1.
         24    1    1    2    0    0  0.45236423602E+02  0.15625389526E+02  0.82869157275E+02  0.12500000000E+03  0.80419002446E+02 0.  1.
        -24    1    1    2    0    0 -0.45236423602E+02 -0.15625389526E+02 -0.82869157275E+02  0.12500000000E+03  0.80419002446E+02 0. -1.
</event>
<event>
 4    1  0.1699921E-001  0.1250000E+03  0.7546771E-02  0.1126479E+00
        -11   -1    0    0    0    0  0.00000000000E+00  0.00000000000E+00  0.12500000000E+03  0.12500000000E+03  0.00000000000E+00 0.  1.
         11   -1    0    0    0    0 -0.00000000000E+00 -0.00000000000E+00 -0.12500000000E+03  0.12500000000E+03  0.00000000000E+00 0. -1.
         24    1    1    2    0    0 -0.14756644218E+02  0.21880152183E+02  0.91985240324E+02  0.12500000000E+03  0.80419002446E+02 0.  1.
        -24    1    1    2    0    0  0.14756644218E+02 -0.21880152183E+02 -0.91985240324E+02  0.12500000000E+03  0.80419002446E+02 0. -1.
</event>
<event>
 4    1  0.1699921E-001  0.1250000E+03  0.7546771E-02  0.1126479E+00
        -11   -1    0    0    0    0  0.00000000000E+00  0.00000000000E+00  0.12500000000E+03  0.12500000000E+03  0.00000000000E+00 0.  1.
         11   -1    0    0    0    0 -0.00000000000E+00 -0.00000000000E+00 -0.12500000000E+03  0.12500000000E+03  0.00000000000E+00 0. -1.
         24    1    1    2    0    0  0.20973808017E+02 -0.78140292786E+01  0.93042056992E+02  0.12500000000E+03  0.80419002446E+02 0.  1.
        -24    1    1    2    0    0 -0.20973808017E+02  0.78140292786E+01 -0.93042056992E+02  0.12500000000E+03  0.80419002446E+02 0. -1.
</event>
<event>
 4    1  0.1699921E-001  0.1250000E+03  0.7546771E-02  0.1126479E+00
        -11   -1    0    0    0    0  0.00000000000E+00  0.00000000000E+00  0.12500000000E+03  0.12500000000E+03  0.00000000000E+00 0.  1.
         11   -1    0    0    0    0 -0.00000000000E+00 -0.00000000000E+00 -0.12500000000E+03  0.12500000000E+03  0.00000000000E+00 0. -1.
         24    1    1    2    0    0 -0.39517970307E+02 -0.27456510596E+01  0.87112430047E+02  0.12500000000E+03  0.80419002446E+02 0.  1.
        -24    1    1    2    0    0  0.39517970307E+02  0.27456510596E+01 -0.87112430047E+02  0.12500000000E+03  0.80419002446E+02 0. -1.
</event>
<event>
 4    1  0.1699921E-001  0.1250000E+03  0.7546771E-02  0.1126479E+00
        -11   -1    0    0    0    0  0.00000000000E+00  0.00000000000E+00  0.12500000000E+03  0.12500000000E+03  0.00000000000E+00 0.  1.
         11   -1    0    0    0    0 -0.00000000000E+00 -0.00000000000E+00 -0.12500000000E+03  0.12500000000E+03  0.00000000000E+00 0. -1.
         24    1    1    2    0    0  0.53306030106E+02 -0.66145488259E+02  0.44057071883E+02  0.12500000000E+03  0.80419002446E+02 0.  1.
        -24    1    1    2    0    0 -0.53306030106E+02  0.66145488259E+02 -0.44057071883E+02  0.12500000000E+03  0.80419002446E+02 0. -1.
</event>
<event>
 4    1  0.1699921E-001  0.1250000E+03  0.7546771E-02  0.1126479E+00
        -11   -1    0    0    0    0  0.00000000000E+00  0.00000000000E+00  0.12500000000E+03  0.12500000000E+03  0.00000000000E+00 0.  1.
         11   -1    0    0    0    0 -0.00000000000E+00 -0.00000000000E+00 -0.12500000000E+03  0.12500000000E+03  0.00000000000E+00 0. -1.
         24    1    1    2    0    0  0.97401742411E+01  0.83202938569E+02  0.46262123436E+02  0.12500000000E+03  0.80419002446E+02 0.  1.
        -24    1    1    2    0    0 -0.97401742411E+01 -0.83202938569E+02 -0.46262123436E+02  0.12500000000E+03  0.80419002446E+02 0. -1.
</event>
<event>
 4    1  0.1699921E-001  0.1250000E+03  0.7546771E-02  0.1126479E+00
        -11   -1    0    0    0    0  0.00000000000E+00  0.00000000000E+00  0.12500000000E+03  0.12500000000E+03  0.00000000000E+00 0.  1.
         11   -1    0    0    0    0 -0.00000000000E+00 -0.00000000000E+00 -0.12500000000E+03  0.12500000000E+03  0.00000000000E+00 0. -1.
         24    1    1    2    0    0  0.45054850445E+02  0.34605421158E+02  0.77008501631E+02  0.12500000000E+03  0.80419002446E+02 0.  1.
        -24    1    1    2    0    0 -0.45054850445E+02 -0.34605421158E+02 -0.77008501631E+02  0.12500000000E+03  0.80419002446E+02 0. -1.
</event>
<event>
 4    1  0.1699921E-001  0.1250000E+03  0.7546771E-02  0.1126479E+00
        -11   -1    0    0    0    0  0.00000000000E+00  0.00000000000E+00  0.12500000000E+03  0.12500000000E+03  0.00000000000E+00 0.  1.
         11   -1    0    0    0    0 -0.00000000000E+00 -0.00000000000E+00 -0.12500000000E+03  0.12500000000E+03  0.00000000000E+00 0. -1.
         24    1    1    2    0    0  0.65167244037E+02  0.70065602331E+02 -0.13511921551E+01  0.12500000000E+03  0.80419002446E+02 0.  1.
        -24    1    1    2    0    0 -0.65167244037E+02 -0.70065602331E+02  0.13511921551E+01  0.12500000000E+03  0.80419002446E+02 0. -1.
</event>
<event>
 4    1  0.1699921E-001  0.1250000E+03  0.7546771E-02  0.1126479E+00
        -11   -1    0    0    0    0  0.00000000000E+00  0.00000000000E+00  0.12500000000E+03  0.12500000000E+03  0.00000000000E+00 0.  1.
         11   -1    0    0    0    0 -0.00000000000E+00 -0.00000000000E+00 -0.12500000000E+03  0.12500000000E+03  0.00000000000E+00 0. -1.
         24    1    1    2    0    0 -0.89705656911E+01  0.82161588781E+01  0.94920007006E+02  0.12500000000E+03  0.80419002446E+02 0.  0.
        -24    1    1    2    0    0  0.89705656911E+01 -0.82161588781E+01 -0.94920007006E+02  0.12500000000E+03  0.80419002446E+02 0. -1.
</event>
<event>
 4    1  0.1699921E-001  0.1250000E+03  0.7546771E-02  0.1126479E+00
        -11   -1    0    0    0    0  0.00000000000E+00  0.00000000000E+00  0.12500000000E+03  0.12500000000E+03  0.00000000000E+00 0.  1.
         11   -1    0    0    0    0 -0.00000000000E+00 -0.00000000000E+00 -0.12500000000E+03  0.12500000000E+03  0.00000000000E+00 0. -1.
         24    1    1    2    0    0  0.31867587231E+02  0.28213293111E+02  0.85710273722E+02  0.12500000000E+03  0.80419002446E+02 0.  1.
        -24    1    1    2    0    0 -0.31867587231E+02 -0.28213293111E+02 -0.85710273722E+02  0.12500000000E+03  0.80419002446E+02 0. -1.
</event>
<event>
 4    1  0.1699921E-001  0.1250000E+03  0.7546771E-02  0.1126479E+00
        -11   -1    0    0    0    0  0.00000000000E+00  0.00000000000E+00  0.12500000000E+03  0.12500000000E+03  0.00000000000E+00 0.  1.
         11   -1    0    0    0    0 -0.00000000000E+00 -0.00000000000E+00 -0.12500000000E+03  0.12500000000E+03  0.00000000000E+00 0. -1.
         24    1    1    2    0    0 -0.11439477826E+02 -0.59660322033E+02  0.73943007564E+02  0.12500000000E+03  0.80419002446E+02 0. -1.
        -24    1    1    2    0    0  0.11439477826E+02  0.59660322033E+02 -0.73943007564E+02  0.12500000000E+03  0.80419002446E+02 0. -1.
</event>
<event>
 4    1  0.1699921E-001  0.1250000E+03  0.7546771E-02  0.1126479E+00
        -11   -1    0    0    0    0  0.00000000000E+00  0.00000000000E+00  0.12500000000E+03  0.12500000000E+03  0.00000000000E+00 0.  1.
         11   -1    0    0    0    0 -0.00000000000E+00 -0.00000000000E+00 -0.12500000000E+03  0.12500000000E+03  0.00000000000E+00 0. -1.
         24    1    1    2    0    0 -0.20197480217E+02 -0.27849690662E+02  0.89298603397E+02  0.12500000000E+03  0.80419002446E+02 0.  1.
        -24    1    1    2    0    0  0.20197480217E+02  0.27849690662E+02 -0.89298603397E+02  0.12500000000E+03  0.80419002446E+02 0. -1.
</event>
<event>
 4    1  0.1699921E-001  0.1250000E+03  0.7546771E-02  0.1126479E+00
        -11   -1    0    0    0    0  0.00000000000E+00  0.00000000000E+00  0.12500000000E+03  0.12500000000E+03  0.00000000000E+00 0.  1.
         11   -1    0    0    0    0 -0.00000000000E+00 -0.00000000000E+00 -0.12500000000E+03  0.12500000000E+03  0.00000000000E+00 0. -1.
         24    1    1    2    0    0 -0.74704986043E+00  0.19676025683E+02  0.93648705146E+02  0.12500000000E+03  0.80419002446E+02 0.  1.
        -24    1    1    2    0    0  0.74704986043E+00 -0.19676025683E+02 -0.93648705146E+02  0.12500000000E+03  0.80419002446E+02 0. -1.
</event>
<event>
 4    1  0.1699921E-001  0.1250000E+03  0.7546771E-02  0.1126479E+00
        -11   -1    0    0    0    0  0.00000000000E+00  0.00000000000E+00  0.12500000000E+03  0.12500000000E+03  0.00000000000E+00 0.  1.
         11   -1    0    0    0    0 -0.00000000000E+00 -0.00000000000E+00 -0.12500000000E+03  0.12500000000E+03  0.00000000000E+00 0. -1.
         24    1    1    2    0    0  0.52959934404E+02 -0.90888245193E+01  0.79186000419E+02  0.12500000000E+03  0.80419002446E+02 0.  1.
        -24    1    1    2    0    0 -0.52959934404E+02  0.90888245193E+01 -0.79186000419E+02  0.12500000000E+03  0.80419002446E+02 0. -1.
</event>
<event>
 4    1  0.1699921E-001  0.1250000E+03  0.7546771E-02  0.1126479E+00
        -11   -1    0    0    0    0  0.00000000000E+00  0.00000000000E+00  0.12500000000E+03  0.12500000000E+03  0.00000000000E+00 0.  1.
         11   -1    0    0    0    0 -0.00000000000E+00 -0.00000000000E+00 -0.12500000000E+03  0.12500000000E+03  0.00000000000E+00 0. -1.
         24    1    1    2    0    0 -0.39867123703E+01  0.35355810485E+02  0.88836123481E+02  0.12500000000E+03  0.80419002446E+02 0.  1.
        -24    1    1    2    0    0  0.39867123703E+01 -0.35355810485E+02 -0.88836123481E+02  0.12500000000E+03  0.80419002446E+02 0. -1.
</event>
<event>
 4    1  0.1699921E-001  0.1250000E+03  0.7546771E-02  0.1126479E+00
        -11   -1    0    0    0    0  0.00000000000E+00  0.00000000000E+00  0.12500000000E+03  0.12500000000E+03  0.00000000000E+00 0.  1.
         11   -1    0    0    0    0 -0.00000000000E+00 -0.00000000000E+00 -0.12500000000E+03  0.12500000000E+03  0.00000000000E+00 0. -1.
         24    1    1    2    0    0  0.37625251661E+02  0.28895043180E+02  0.83109572028E+02  0.12500000000E+03  0.80419002446E+02 0.  1.
        -24    1    1    2    0    0 -0.37625251661E+02 -0.28895043180E+02 -0.83109572028E+02  0.12500000000E+03  0.80419002446E+02 0. -1.
</event>
<event>
 4    1  0.1699921E-001  0.1250000E+03  0.7546771E-02  0.1126479E+00
        -11   -1    0    0    0    0  0.00000000000E+00  0.00000000000E+00  0.12500000000E+03  0.12500000000E+03  0.00000000000E+00 0.  1.
         11   -1    0    0    0    0 -0.00000000000E+00 -0.00000000000E+00 -0.12500000000E+03  0.12500000000E+03  0.00000000000E+00 0. -1.
         24    1    1    2    0    0 -0.87758489295E+02  0.27343108257E+02 -0.26619279351E+02  0.12500000000E+03  0.80419002446E+02 0.  0.
        -24    1    1    2    0    0  0.87758489295E+02 -0.27343108257E+02  0.26619279351E+02  0.12500000000E+03  0.80419002446E+02 0.  0.
</event>
<event>
 4    1  0.1699921E-001  0.1250000E+03  0.7546771E-02  0.1126479E+00
        -11   -1    0    0    0    0  0.00000000000E+00  0.00000000000E+00  0.12500000000E+03  0.12500000000E+03  0.00000000000E+00 0.  1.
         11   -1    0    0    0    0 -0.00000000000E+00 -0.00000000000E+00 -0.12500000000E+03  0.12500000000E+03  0.00000000000E+00 0. -1.
         24    1    1    2    0    0 -0.55228449890E+02  0.77017381725E+02 -0.13263682771E+02  0.12500000000E+03  0.80419002446E+02 0.  0.
        -24    1    1    2    0    0  0.55228449890E+02 -0.77017381725E+02  0.13263682771E+02  0.12500000000E+03  0.80419002446E+02 0.  0.
</event>
<event>
 4    1  0.1699921E-001  0.1250000E+03  0.7546771E-02  0.1126479E+00
        -11   -1    0    0    0    0  0.00000000000E+00  0.00000000000E+00  0.12500000000E+03  0.12500000000E+03  0.00000000000E+00 0.  1.
         11   -1    0    0    0    0 -0.00000000000E+00 -0.00000000000E+00 -0.12500000000E+03  0.12500000000E+03  0.00000000000E+00 0. -1.
         24    1    1    2    0    0  0.81245063307E+02  0.49853064167E+02  0.84673329373E+01  0.12500000000E+03  0.80419002446E+02 0.  1.
        -24    1    1    2    0    0 -0.81245063307E+02 -0.49853064167E+02 -0.84673329373E+01  0.12500000000E+03  0.80419002446E+02 0. -1.
</event>
<event>
 4    1  0.1699921E-001  0.1250000E+03  0.7546771E-02  0.1126479E+00
        -11   -1    0    0    0    0  0.00000000000E+00  0.00000000000E+00  0.12500000000E+03  0.12500000000E+03  0.00000000000E+00 0.  1.
         11   -1    0    0    0    0 -0.00000000000E+00 -0.00000000000E+00 -0.12500000000E+03  0.12500000000E+03  0.00000000000E+00 0. -1.
         24    1    1    2    0    0  0.25854994849E+01 -0.67597295118E+02  0.67688292420E+02  0.12500000000E+03  0.80419002446E+02 0.  1.
        -24    1    1    2    0    0 -0.25854994849E+01  0.67597295118E+02 -0.67688292420E+02  0.12500000000E+03  0.80419002446E+02 0. -1.
</event>
<event>
 4    1  0.1699921E-001  0.1250000E+03  0.7546771E-02  0.1126479E+00
        -11   -1    0    0    0    0  0.00000000000E+00  0.00000000000E+00  0.12500000000E+03  0.12500000000E+03  0.00000000000E+00 0.  1.
         11   -1    0    0    0    0 -0.00000000000E+00 -0.00000000000E+00 -0.12500000000E+03  0.12500000000E+03  0.00000000000E+00 0. -1.
         24    1    1    2    0    0 -0.25939651372E+02 -0.17526647317E+02  0.90430830839E+02  0.12500000000E+03  0.80419002446E+02 0.  1.
        -24    1    1    2    0    0  0.25939651372E+02  0.17526647317E+02 -0.90430830839E+02  0.12500000000E+03  0.80419002446E+02 0. -1.
</event>
<event>
 4    1  0.1699921E-001  0.1250000E+03  0.7546771E-02  0.1126479E+00
        -11   -1    0    0    0    0  0.00000000000E+00  0.00000000000E+00  0.12500000000E+03  0.12500000000E+03  0.00000000000E+00 0.  1.
         11   -1    0    0    0    0 -0.00000000000E+00 -0.00000000000E+00 -0.12500000000E+03  0.12500000000E+03  0.00000000000E+00 0. -1.
         24    1    1    2    0    0  0.10542391115E+02  0.88490741579E+01  0.94701298416E+02  0.12500000000E+03  0.80419002446E+02 0.  1.
        -24    1    1    2    0    0 -0.10542391115E+02 -0.88490741579E+01 -0.94701298416E+02  0.12500000000E+03  0.80419002446E+02 0.  0.
</event>
<event>
 4    1  0.1699921E-001  0.1250000E+03  0.7546771E-02  0.1126479E+00
        -11   -1    0    0    0    0  0.00000000000E+00  0.00000000000E+00  0.12500000000E+03  0.12500000000E+03  0.00000000000E+00 0.  1.
         11   -1    0    0    0    0 -0.00000000000E+00 -0.00000000000E+00 -0.12500000000E+03  0.12500000000E+03  0.00000000000E+00 0. -1.
         24    1    1    2    0    0  0.33501559945E+02 -0.12885195590E+02  0.88709645820E+02  0.12500000000E+03  0.80419002446E+02 0.  1.
        -24    1    1    2    0    0 -0.33501559945E+02  0.12885195590E+02 -0.88709645820E+02  0.12500000000E+03  0.80419002446E+02 0. -1.
</event>
<event>
 4    1  0.1699921E-001  0.1250000E+03  0.7546771E-02  0.1126479E+00
        -11   -1    0    0    0    0  0.00000000000E+00  0.00000000000E+00  0.12500000000E+03  0.12500000000E+03  0.00000000000E+00 0.  1.
         11   -1    0    0    0    0 -0.00000000000E+00 -0.00000000000E+00 -0.12500000000E+03  0.12500000000E+03  0.00000000000E+00 0. -1.
         24    1    1    2    0    0 -0.17498698873E+02 -0.24504414510E+02  0.90835638672E+02  0.12500000000E+03  0.80419002446E+02 0. -1.
        -24    1    1    2    0    0  0.17498698873E+02  0.24504414510E+02 -0.90835638672E+02  0.12500000000E+03  0.80419002446E+02 0.  0.
</event>
<event>
 4    1  0.1699921E-001  0.1250000E+03  0.7546771E-02  0.1126479E+00
        -11   -1    0    0    0    0  0.00000000000E+00  0.00000000000E+00  0.12500000000E+03  0.12500000000E+03  0.00000000000E+00 0.  1.
         11   -1    0    0    0    0 -0.00000000000E+00 -0.00000000000E+00 -0.12500000000E+03  0.12500000000E+03  0.00000000000E+00 0. -1.
         24    1    1    2    0    0  0.18967015602E+02  0.17100278294E+02  0.92225901172E+02  0.12500000000E+03  0.80419002446E+02 0.  0.
        -24    1    1    2    0    0 -0.18967015602E+02 -0.17100278294E+02 -0.92225901172E+02  0.12500000000E+03  0.80419002446E+02 0.  0.
</event>
<event>
 4    1  0.1699921E-001  0.1250000E+03  0.7546771E-02  0.1126479E+00
        -11   -1    0    0    0    0  0.00000000000E+00  0.00000000000E+00  0.12500000000E+03  0.12500000000E+03  0.00000000000E+00 0.  1.
         11   -1    0    0    0    0 -0.00000000000E+00 -0.00000000000E+00 -0.12500000000E+03  0.12500000000E+03  0.00000000000E+00 0. -1.
         24    1    1    2    0    0 -0.75372661477E+02  0.19462762922E+02 -0.55659202357E+02  0.12500000000E+03  0.80419002446E+02 0. -1.
        -24    1    1    2    0    0  0.75372661477E+02 -0.19462762922E+02  0.55659202357E+02  0.12500000000E+03  0.80419002446E+02 0.  1.
</event>
<event>
 4    1  0.1699921E-001  0.1250000E+03  0.7546771E-02  0.1126479E+00
        -11   -1    0    0    0    0  0.00000000000E+00  0.00000000000E+00  0.12500000000E+03  0.12500000000E+03  0.00000000000E+00 0.  1.
         11   -1    0    0    0    0 -0.00000000000E+00 -0.00000000000E+00 -0.12500000000E+03  0.12500000000E+03  0.00000000000E+00 0. -1.
         24    1    1    2    0    0 -0.13973495561E+02 -0.75895557801E+02  0.56589661367E+02  0.12500000000E+03  0.80419002446E+02 0.  1.
        -24    1    1    2    0    0  0.13973495561E+02  0.75895557801E+02 -0.56589661367E+02  0.12500000000E+03  0.80419002446E+02 0. -1.
</event>
<event>
 4    1  0.1699921E-001  0.1250000E+03  0.7546771E-02  0.1126479E+00
        -11   -1    0    0    0    0  0.00000000000E+00  0.00000000000E+00  0.12500000000E+03  0.12500000000E+03  0.00000000000E+00 0. -1.
         11   -1    0    0    0    0 -0.00000000000E+00 -0.00000000000E+00 -0.12500000000E+03  0.12500000000E+03  0.00000000000E+00 0.  1.
         24    1    1    2    0    0 -0.68586668361E+01 -0.66556941482E+02 -0.68417222067E+02  0.12500000000E+03  0.80419002446E+02 0.  0.
        -24    1    1    2    0    0  0.68586668361E+01  0.66556941482E+02  0.68417222067E+02  0.12500000000E+03  0.80419002446E+02 0.  0.
</event>
<event>
 4    1  0.1699921E-001  0.1250000E+03  0.7546771E-02  0.1126479E+00
        -11   -1    0    0    0    0  0.00000000000E+00  0.00000000000E+00  0.12500000000E+03  0.12500000000E+03  0.00000000000E+00 0.  1.
         11   -1    0    0    0    0 -0.00000000000E+00 -0.00000000000E+00 -0.12500000000E+03  0.12500000000E+03  0.00000000000E+00 0. -1.
         24    1    1    2    0    0  0.14420369231E+02 -0.21646604591E+02  0.92093764754E+02  0.12500000000E+03  0.80419002446E+02 0.  1.
        -24    1    1    2    0    0 -0.14420369231E+02  0.21646604591E+02 -0.92093764754E+02  0.12500000000E+03  0.80419002446E+02 0. -1.
</event>
<event>
 4    1  0.1699921E-001  0.1250000E+03  0.7546771E-02  0.1126479E+00
        -11   -1    0    0    0    0  0.00000000000E+00  0.00000000000E+00  0.12500000000E+03  0.12500000000E+03  0.00000000000E+00 0.  1.
         11   -1    0    0    0    0 -0.00000000000E+00 -0.00000000000E+00 -0.12500000000E+03  0.12500000000E+03  0.00000000000E+00 0. -1.
         24    1    1    2    0    0  0.62547325979E+01  0.44621399781E+02  0.84425073570E+02  0.12500000000E+03  0.80419002446E+02 0. -1.
        -24    1    1    2    0    0 -0.62547325979E+01 -0.44621399781E+02 -0.84425073570E+02  0.12500000000E+03  0.80419002446E+02 0. -1.
</event>
<event>
 4    1  0.1699921E-001  0.1250000E+03  0.7546771E-02  0.1126479E+00
        -11   -1    0    0    0    0  0.00000000000E+00  0.00000000000E+00  0.12500000000E+03  0.12500000000E+03  0.00000000000E+00 0.  1.
         11   -1    0    0    0    0 -0.00000000000E+00 -0.00000000000E+00 -0.12500000000E+03  0.12500000000E+03  0.00000000000E+00 0. -1.
         24    1    1    2    0    0 -0.15482638903E+02 -0.24083592584E+02  0.91312937235E+02  0.12500000000E+03  0.80419002446E+02 0.  1.
        -24    1    1    2    0    0  0.15482638903E+02  0.24083592584E+02 -0.91312937235E+02  0.12500000000E+03  0.80419002446E+02 0. -1.
</event>
<event>
 4    1  0.1699921E-001  0.1250000E+03  0.7546771E-02  0.1126479E+00
        -11   -1    0    0    0    0  0.00000000000E+00  0.00000000000E+00  0.12500000000E+03  0.12500000000E+03  0.00000000000E+00 0.  1.
         11   -1    0    0    0    0 -0.00000000000E+00 -0.00000000000E+00 -0.12500000000E+03  0.12500000000E+03  0.00000000000E+00 0. -1.
         24    1    1    2    0    0  0.60202595871E+02 -0.32936635078E+02  0.66697897762E+02  0.12500000000E+03  0.80419002446E+02 0.  1.
        -24    1    1    2    0    0 -0.60202595871E+02  0.32936635078E+02 -0.66697897762E+02  0.12500000000E+03  0.80419002446E+02 0. -1.
</event>
<event>
 4    1  0.1699921E-001  0.1250000E+03  0.7546771E-02  0.1126479E+00
        -11   -1    0    0    0    0  0.00000000000E+00  0.00000000000E+00  0.12500000000E+03  0.12500000000E+03  0.00000000000E+00 0.  1.
         11   -1    0    0    0    0 -0.00000000000E+00 -0.00000000000E+00 -0.12500000000E+03  0.12500000000E+03  0.00000000000E+00 0. -1.
         24    1    1    2    0    0  0.42837462439E+02  0.65479156440E+02  0.55092793806E+02  0.12500000000E+03  0.80419002446E+02 0.  1.
        -24    1    1    2    0    0 -0.42837462439E+02 -0.65479156440E+02 -0.55092793806E+02  0.12500000000E+03  0.80419002446E+02 0. -1.
</event>
<event>
 4    1  0.1699921E-001  0.1250000E+03  0.7546771E-02  0.1126479E+00
        -11   -1    0    0    0    0  0.00000000000E+00  0.00000000000E+00  0.12500000000E+03  0.12500000000E+03  0.00000000000E+00 0.  1.
         11   -1    0    0    0    0 -0.00000000000E+00 -0.00000000000E+00 -0.12500000000E+03  0.12500000000E+03  0.00000000000E+00 0. -1.
         24    1    1    2    0    0 -0.23650057188E+02 -0.91387632857E+02  0.15708577318E+02  0.12500000000E+03  0.80419002446E+02 0.  1.
        -24    1    1    2    0    0  0.23650057188E+02  0.91387632857E+02 -0.15708577318E+02  0.12500000000E+03  0.80419002446E+02 0. -1.
</event>
<event>
 4    1  0.1699921E-001  0.1250000E+03  0.7546771E-02  0.1126479E+00
        -11   -1    0    0    0    0  0.00000000000E+00  0.00000000000E+00  0.12500000000E+03  0.12500000000E+03  0.00000000000E+00 0.  1.
         11   -1    0    0    0    0 -0.00000000000E+00 -0.00000000000E+00 -0.12500000000E+03  0.12500000000E+03  0.00000000000E+00 0. -1.
         24    1    1    2    0    0  0.32227991021E+02 -0.13546588044E+02  0.89082156422E+02  0.12500000000E+03  0.80419002446E+02 0.  1.
        -24    1    1    2    0    0 -0.32227991021E+02  0.13546588044E+02 -0.89082156422E+02  0.12500000000E+03  0.80419002446E+02 0. -1.
</event>
<event>
 4    1  0.1699921E-001  0.1250000E+03  0.7546771E-02  0.1126479E+00
        -11   -1    0    0    0    0  0.00000000000E+00  0.00000000000E+00  0.12500000000E+03  0.12500000000E+03  0.00000000000E+00 0.  1.
         11   -1    0    0    0    0 -0.00000000000E+00 -0.00000000000E+00 -0.12500000000E+03  0.12500000000E+03  0.00000000000E+00 0. -1.
         24    1    1    2    0    0  0.25639648110E+02  0.84914171503E+01  0.91805709655E+02  0.12500000000E+03  0.80419002446E+02 0.  0.
        -24    1    1    2    0    0 -0.25639648110E+02 -0.84914171503E+01 -0.91805709655E+02  0.12500000000E+03  0.80419002446E+02 0.  1.
</event>
<event>
 4    1  0.1699921E-001  0.1250000E+03  0.7546771E-02  0.1126479E+00
        -11   -1    0    0    0    0  0.00000000000E+00  0.00000000000E+00  0.12500000000E+03  0.12500000000E+03  0.00000000000E+00 0.  1.
         11   -1    0    0    0    0 -0.00000000000E+00 -0.00000000000E+00 -0.12500000000E+03  0.12500000000E+03  0.00000000000E+00 0. -1.
         24    1    1    2    0    0 -0.57643660545E+02  0.17520512153E+02  0.74350683242E+02  0.12500000000E+03  0.80419002446E+02 0.  1.
        -24    1    1    2    0    0  0.57643660545E+02 -0.17520512153E+02 -0.74350683242E+02  0.12500000000E+03  0.80419002446E+02 0. -1.
</event>
<event>
 4    1  0.1699921E-001  0.1250000E+03  0.7546771E-02  0.1126479E+00
        -11   -1    0    0    0    0  0.00000000000E+00  0.00000000000E+00  0.12500000000E+03  0.12500000000E+03  0.00000000000E+00 0.  1.
         11   -1    0    0    0    0 -0.00000000000E+00 -0.00000000000E+00 -0.12500000000E+03  0.12500000000E+03  0.00000000000E+00 0. -1.
         24    1    1    2    0    0  0.32051042246E+02 -0.28493041171E+02  0.85549174990E+02  0.12500000000E+03  0.80419002446E+02 0.  1.
        -24    1    1    2    0    0 -0.32051042246E+02  0.28493041171E+02 -0.85549174990E+02  0.12500000000E+03  0.80419002446E+02 0. -1.
</event>
<event>
 4    1  0.1699921E-001  0.1250000E+03  0.7546771E-02  0.1126479E+00
        -11   -1    0    0    0    0  0.00000000000E+00  0.00000000000E+00  0.12500000000E+03  0.12500000000E+03  0.00000000000E+00 0.  1.
         11   -1    0    0    0    0 -0.00000000000E+00 -0.00000000000E+00 -0.12500000000E+03  0.12500000000E+03  0.00000000000E+00 0. -1.
         24    1    1    2    0    0  0.50706770900E+02  0.24390864000E+02  0.77406028084E+02  0.12500000000E+03  0.80419002446E+02 0.  1.
        -24    1    1    2    0    0 -0.50706770900E+02 -0.24390864000E+02 -0.77406028084E+02  0.12500000000E+03  0.80419002446E+02 0. -1.
</event>
<event>
 4    1  0.1699921E-001  0.1250000E+03  0.7546771E-02  0.1126479E+00
        -11   -1    0    0    0    0  0.00000000000E+00  0.00000000000E+00  0.12500000000E+03  0.12500000000E+03  0.00000000000E+00 0.  1.
         11   -1    0    0    0    0 -0.00000000000E+00 -0.00000000000E+00 -0.12500000000E+03  0.12500000000E+03  0.00000000000E+00 0. -1.
         24    1    1    2    0    0  0.16139414787E+01 -0.28510895872E+02  0.91336236265E+02  0.12500000000E+03  0.80419002446E+02 0.  1.
        -24    1    1    2    0    0 -0.16139414787E+01  0.28510895872E+02 -0.91336236265E+02  0.12500000000E+03  0.80419002446E+02 0. -1.
</event>
<event>
 4    1  0.1699921E-001  0.1250000E+03  0.7546771E-02  0.1126479E+00
        -11   -1    0    0    0    0  0.00000000000E+00  0.00000000000E+00  0.12500000000E+03  0.12500000000E+03  0.00000000000E+00 0.  1.
         11   -1    0    0    0    0 -0.00000000000E+00 -0.00000000000E+00 -0.12500000000E+03  0.12500000000E+03  0.00000000000E+00 0. -1.
         24    1    1    2    0    0 -0.27849124854E+02  0.41722022403E+02  0.81495295184E+02  0.12500000000E+03  0.80419002446E+02 0.  1.
        -24    1    1    2    0    0  0.27849124854E+02 -0.41722022403E+02 -0.81495295184E+02  0.12500000000E+03  0.80419002446E+02 0. -1.
</event>
<event>
 4    1  0.1699921E-001  0.1250000E+03  0.7546771E-02  0.1126479E+00
        -11   -1    0    0    0    0  0.00000000000E+00  0.00000000000E+00  0.12500000000E+03  0.12500000000E+03  0.00000000000E+00 0.  1.
         11   -1    0    0    0    0 -0.00000000000E+00 -0.00000000000E+00 -0.12500000000E+03  0.12500000000E+03  0.00000000000E+00 0. -1.
         24    1    1    2    0    0 -0.38447549387E+02  0.50440776500E+02  0.71660993977E+02  0.12500000000E+03  0.80419002446E+02 0.  1.
        -24    1    1    2    0    0  0.38447549387E+02 -0.50440776500E+02 -0.71660993977E+02  0.12500000000E+03  0.80419002446E+02 0. -1.
</event>
<event>
 4    1  0.1699921E-001  0.1250000E+03  0.7546771E-02  0.1126479E+00
        -11   -1    0    0    0    0  0.00000000000E+00  0.00000000000E+00  0.12500000000E+03  0.12500000000E+03  0.00000000000E+00 0.  1.
         11   -1    0    0    0    0 -0.00000000000E+00 -0.00000000000E+00 -0.12500000000E+03  0.12500000000E+03  0.00000000000E+00 0. -1.
         24    1    1    2    0    0  0.51659978554E+01  0.38572135537E+02  0.87425893601E+02  0.12500000000E+03  0.80419002446E+02 0.  1.
        -24    1    1    2    0    0 -0.51659978554E+01 -0.38572135537E+02 -0.87425893601E+02  0.12500000000E+03  0.80419002446E+02 0. -1.
</event>
<event>
 4    1  0.1699921E-001  0.1250000E+03  0.7546771E-02  0.1126479E+00
        -11   -1    0    0    0    0  0.00000000000E+00  0.00000000000E+00  0.12500000000E+03  0.12500000000E+03  0.00000000000E+00 0.  1.
         11   -1    0    0    0    0 -0.00000000000E+00 -0.00000000000E+00 -0.12500000000E+03  0.12500000000E+03  0.00000000000E+00 0. -1.
         24    1    1    2    0    0 -0.32278757014E+02 -0.25459824677E+02  0.86415642211E+02  0.12500000000E+03  0.80419002446E+02 0.  1.
        -24    1    1    2    0    0  0.32278757014E+02  0.25459824677E+02 -0.86415642211E+02  0.12500000000E+03  0.80419002446E+02 0. -1.
</event>
<event>
 4    1  0.1699921E-001  0.1250000E+03  0.7546771E-02  0.1126479E+00
        -11   -1    0    0    0    0  0.00000000000E+00  0.00000000000E+00  0.12500000000E+03  0.12500000000E+03  0.00000000000E+00 0.  1.
         11   -1    0    0    0    0 -0.00000000000E+00 -0.00000000000E+00 -0.12500000000E+03  0.12500000000E+03  0.00000000000E+00 0. -1.
         24    1    1    2    0    0 -0.83287769828E+02 -0.45587634382E+02  0.11945670103E+02  0.12500000000E+03  0.80419002446E+02 0. -1.
        -24    1    1    2    0    0  0.83287769828E+02  0.45587634382E+02 -0.11945670103E+02  0.12500000000E+03  0.80419002446E+02 0.  1.
</event>
<event>
 4    1  0.1699921E-001  0.1250000E+03  0.7546771E-02  0.1126479E+00
        -11   -1    0    0    0    0  0.00000000000E+00  0.00000000000E+00  0.12500000000E+03  0.12500000000E+03  0.00000000000E+00 0.  1.
         11   -1    0    0    0    0 -0.00000000000E+00 -0.00000000000E+00 -0.12500000000E+03  0.12500000000E+03  0.00000000000E+00 0. -1.
         24    1    1    2    0    0 -0.53154585024E+02 -0.67260759736E+02  0.42524867269E+02  0.12500000000E+03  0.80419002446E+02 0.  1.
        -24    1    1    2    0    0  0.53154585024E+02  0.67260759736E+02 -0.42524867269E+02  0.12500000000E+03  0.80419002446E+02 0. -1.
</event>
<event>
 4    1  0.1699921E-001  0.1250000E+03  0.7546771E-02  0.1126479E+00
        -11   -1    0    0    0    0  0.00000000000E+00  0.00000000000E+00  0.12500000000E+03  0.12500000000E+03  0.00000000000E+00 0.  1.
         11   -1    0    0    0    0 -0.00000000000E+00 -0.00000000000E+00 -0.12500000000E+03  0.12500000000E+03  0.00000000000E+00 0. -1.
         24    1    1    2    0    0 -0.14441598261E+02  0.59478038719E-01  0.94600321076E+02  0.12500000000E+03  0.80419002446E+02 0.  1.
        -24    1    1    2    0    0  0.14441598261E+02 -0.59478038719E-01 -0.94600321076E+02  0.12500000000E+03  0.80419002446E+02 0. -1.
</event>
<event>
 4    1  0.1699921E-001  0.1250000E+03  0.7546771E-02  0.1126479E+00
        -11   -1    0    0    0    0  0.00000000000E+00  0.00000000000E+00  0.12500000000E+03  0.12500000000E+03  0.00000000000E+00 0.  1.
         11   -1    0    0    0    0 -0.00000000000E+00 -0.00000000000E+00 -0.12500000000E+03  0.12500000000E+03  0.00000000000E+00 0. -1.
         24    1    1    2    0    0  0.11055753468E+02 -0.90325280417E+02  0.29612464917E+02  0.12500000000E+03  0.80419002446E+02 0.  1.
        -24    1    1    2    0    0 -0.11055753468E+02  0.90325280417E+02 -0.29612464917E+02  0.12500000000E+03  0.80419002446E+02 0. -1.
</event>
<event>
 4    1  0.1699921E-001  0.1250000E+03  0.7546771E-02  0.1126479E+00
        -11   -1    0    0    0    0  0.00000000000E+00  0.00000000000E+00  0.12500000000E+03  0.12500000000E+03  0.00000000000E+00 0.  1.
         11   -1    0    0    0    0 -0.00000000000E+00 -0.00000000000E+00 -0.12500000000E+03  0.12500000000E+03  0.00000000000E+00 0. -1.
         24    1    1    2    0    0 -0.41925550401E+02 -0.22507627452E+02  0.83026736511E+02  0.12500000000E+03  0.80419002446E+02 0.  1.
        -24    1    1    2    0    0  0.41925550401E+02  0.22507627452E+02 -0.83026736511E+02  0.12500000000E+03  0.80419002446E+02 0. -1.
</event>
<event>
 4    1  0.1699921E-001  0.1250000E+03  0.7546771E-02  0.1126479E+00
        -11   -1    0    0    0    0  0.00000000000E+00  0.00000000000E+00  0.12500000000E+03  0.12500000000E+03  0.00000000000E+00 0.  1.
         11   -1    0    0    0    0 -0.00000000000E+00 -0.00000000000E+00 -0.12500000000E+03  0.12500000000E+03  0.00000000000E+00 0. -1.
         24    1    1    2    0    0  0.52701448068E+02  0.75214611654E+02  0.26890585917E+02  0.12500000000E+03  0.80419002446E+02 0.  0.
        -24    1    1    2    0    0 -0.52701448068E+02 -0.75214611654E+02 -0.26890585917E+02  0.12500000000E+03  0.80419002446E+02 0.  0.
</event>
<event>
 4    1  0.1699921E-001  0.1250000E+03  0.7546771E-02  0.1126479E+00
        -11   -1    0    0    0    0  0.00000000000E+00  0.00000000000E+00  0.12500000000E+03  0.12500000000E+03  0.00000000000E+00 0.  1.
         11   -1    0    0    0    0 -0.00000000000E+00 -0.00000000000E+00 -0.12500000000E+03  0.12500000000E+03  0.00000000000E+00 0. -1.
         24    1    1    2    0    0  0.36842872084E+02  0.41759518963E+02 -0.77823707173E+02  0.12500000000E+03  0.80419002446E+02 0. -1.
        -24    1    1    2    0    0 -0.36842872084E+02 -0.41759518963E+02  0.77823707173E+02  0.12500000000E+03  0.80419002446E+02 0.  1.
</event>
<event>
 4    1  0.1699921E-001  0.1250000E+03  0.7546771E-02  0.1126479E+00
        -11   -1    0    0    0    0  0.00000000000E+00  0.00000000000E+00  0.12500000000E+03  0.12500000000E+03  0.00000000000E+00 0.  1.
         11   -1    0    0    0    0 -0.00000000000E+00 -0.00000000000E+00 -0.12500000000E+03  0.12500000000E+03  0.00000000000E+00 0. -1.
         24    1    1    2    0    0  0.46052704822E+02 -0.65222433747E+02  0.52753829817E+02  0.12500000000E+03  0.80419002446E+02 0.  1.
        -24    1    1    2    0    0 -0.46052704822E+02  0.65222433747E+02 -0.52753829817E+02  0.12500000000E+03  0.80419002446E+02 0. -1.
</event>
<event>
 4    1  0.1699921E-001  0.1250000E+03  0.7546771E-02  0.1126479E+00
        -11   -1    0    0    0    0  0.00000000000E+00  0.00000000000E+00  0.12500000000E+03  0.12500000000E+03  0.00000000000E+00 0.  1.
         11   -1    0    0    0    0 -0.00000000000E+00 -0.00000000000E+00 -0.12500000000E+03  0.12500000000E+03  0.00000000000E+00 0. -1.
         24    1    1    2    0    0 -0.19504364899E+02 -0.10496396942E+02  0.93097741362E+02  0.12500000000E+03  0.80419002446E+02 0.  1.
        -24    1    1    2    0    0  0.19504364899E+02  0.10496396942E+02 -0.93097741362E+02  0.12500000000E+03  0.80419002446E+02 0. -1.
</event>
<event>
 4    1  0.1699921E-001  0.1250000E+03  0.7546771E-02  0.1126479E+00
        -11   -1    0    0    0    0  0.00000000000E+00  0.00000000000E+00  0.12500000000E+03  0.12500000000E+03  0.00000000000E+00 0.  1.
         11   -1    0    0    0    0 -0.00000000000E+00 -0.00000000000E+00 -0.12500000000E+03  0.12500000000E+03  0.00000000000E+00 0. -1.
         24    1    1    2    0    0  0.35556099889E+02 -0.58464301825E+02  0.66898977709E+02  0.12500000000E+03  0.80419002446E+02 0.  1.
        -24    1    1    2    0    0 -0.35556099889E+02  0.58464301825E+02 -0.66898977709E+02  0.12500000000E+03  0.80419002446E+02 0. -1.
</event>
<event>
 4    1  0.1699921E-001  0.1250000E+03  0.7546771E-02  0.1126479E+00
        -11   -1    0    0    0    0  0.00000000000E+00  0.00000000000E+00  0.12500000000E+03  0.12500000000E+03  0.00000000000E+00 0.  1.
         11   -1    0    0    0    0 -0.00000000000E+00 -0.00000000000E+00 -0.12500000000E+03  0.12500000000E+03  0.00000000000E+00 0. -1.
         24    1    1    2    0    0 -0.95012724278E+00 -0.14935315406E+02  0.94518874610E+02  0.12500000000E+03  0.80419002446E+02 0.  1.
        -24    1    1    2    0    0  0.95012724278E+00  0.14935315406E+02 -0.94518874610E+02  0.12500000000E+03  0.80419002446E+02 0. -1.
</event>
<event>
 4    1  0.1699921E-001  0.1250000E+03  0.7546771E-02  0.1126479E+00
        -11   -1    0    0    0    0  0.00000000000E+00  0.00000000000E+00  0.12500000000E+03  0.12500000000E+03  0.00000000000E+00 0.  1.
         11   -1    0    0    0    0 -0.00000000000E+00 -0.00000000000E+00 -0.12500000000E+03  0.12500000000E+03  0.00000000000E+00 0. -1.
         24    1    1    2    0    0  0.51871567601E+02 -0.73992383519E+02  0.31500027006E+02  0.12500000000E+03  0.80419002446E+02 0.  1.
        -24    1    1    2    0    0 -0.51871567601E+02  0.73992383519E+02 -0.31500027006E+02  0.12500000000E+03  0.80419002446E+02 0. -1.
</event>
<event>
 4    1  0.1699921E-001  0.1250000E+03  0.7546771E-02  0.1126479E+00
        -11   -1    0    0    0    0  0.00000000000E+00  0.00000000000E+00  0.12500000000E+03  0.12500000000E+03  0.00000000000E+00 0.  1.
         11   -1    0    0    0    0 -0.00000000000E+00 -0.00000000000E+00 -0.12500000000E+03  0.12500000000E+03  0.00000000000E+00 0. -1.
         24    1    1    2    0    0  0.11371875960E+02 -0.88584609744E+02  0.34369047110E+02  0.12500000000E+03  0.80419002446E+02 0.  1.
        -24    1    1    2    0    0 -0.11371875960E+02  0.88584609744E+02 -0.34369047110E+02  0.12500000000E+03  0.80419002446E+02 0. -1.
</event>
<event>
 4    1  0.1699921E-001  0.1250000E+03  0.7546771E-02  0.1126479E+00
        -11   -1    0    0    0    0  0.00000000000E+00  0.00000000000E+00  0.12500000000E+03  0.12500000000E+03  0.00000000000E+00 0.  1.
         11   -1    0    0    0    0 -0.00000000000E+00 -0.00000000000E+00 -0.12500000000E+03  0.12500000000E+03  0.00000000000E+00 0. -1.
         24    1    1    2    0    0  0.66072262387E+01 -0.63304493905E+02  0.71460965978E+02  0.12500000000E+03  0.80419002446E+02 0.  1.
        -24    1    1    2    0    0 -0.66072262387E+01  0.63304493905E+02 -0.71460965978E+02  0.12500000000E+03  0.80419002446E+02 0. -1.
</event>
<event>
 4    1  0.1699921E-001  0.1250000E+03  0.7546771E-02  0.1126479E+00
        -11   -1    0    0    0    0  0.00000000000E+00  0.00000000000E+00  0.12500000000E+03  0.12500000000E+03  0.00000000000E+00 0.  1.
         11   -1    0    0    0    0 -0.00000000000E+00 -0.00000000000E+00 -0.12500000000E+03  0.12500000000E+03  0.00000000000E+00 0. -1.
         24    1    1    2    0    0 -0.19991864950E+02 -0.10888526223E+02  0.92949176318E+02  0.12500000000E+03  0.80419002446E+02 0.  1.
        -24    1    1    2    0    0  0.19991864950E+02  0.10888526223E+02 -0.92949176318E+02  0.12500000000E+03  0.80419002446E+02 0. -1.
</event>
<event>
 4    1  0.1699921E-001  0.1250000E+03  0.7546771E-02  0.1126479E+00
        -11   -1    0    0    0    0  0.00000000000E+00  0.00000000000E+00  0.12500000000E+03  0.12500000000E+03  0.00000000000E+00 0.  1.
         11   -1    0    0    0    0 -0.00000000000E+00 -0.00000000000E+00 -0.12500000000E+03  0.12500000000E+03  0.00000000000E+00 0. -1.
         24    1    1    2    0    0 -0.85890268726E+02  0.41921677028E+02  0.48185868295E+01  0.12500000000E+03  0.80419002446E+02 0.  1.
        -24    1    1    2    0    0  0.85890268726E+02 -0.41921677028E+02 -0.48185868295E+01  0.12500000000E+03  0.80419002446E+02 0. -1.
</event>
<event>
 4    1  0.1699921E-001  0.1250000E+03  0.7546771E-02  0.1126479E+00
        -11   -1    0    0    0    0  0.00000000000E+00  0.00000000000E+00  0.12500000000E+03  0.12500000000E+03  0.00000000000E+00 0.  1.
         11   -1    0    0    0    0 -0.00000000000E+00 -0.00000000000E+00 -0.12500000000E+03  0.12500000000E+03  0.00000000000E+00 0. -1.
         24    1    1    2    0    0 -0.12425754542E+02  0.91627489928E+01  0.94442727092E+02  0.12500000000E+03  0.80419002446E+02 0.  1.
        -24    1    1    2    0    0  0.12425754542E+02 -0.91627489928E+01 -0.94442727092E+02  0.12500000000E+03  0.80419002446E+02 0.  0.
</event>
<event>
 4    1  0.1699921E-001  0.1250000E+03  0.7546771E-02  0.1126479E+00
        -11   -1    0    0    0    0  0.00000000000E+00  0.00000000000E+00  0.12500000000E+03  0.12500000000E+03  0.00000000000E+00 0.  1.
         11   -1    0    0    0    0 -0.00000000000E+00 -0.00000000000E+00 -0.12500000000E+03  0.12500000000E+03  0.00000000000E+00 0. -1.
         24    1    1    2    0    0  0.16767862185E+02  0.35442163035E+02  0.87295337348E+02  0.12500000000E+03  0.80419002446E+02 0.  1.
        -24    1    1    2    0    0 -0.16767862185E+02 -0.35442163035E+02 -0.87295337348E+02  0.12500000000E+03  0.80419002446E+02 0. -1.
</event>
<event>
 4    1  0.1699921E-001  0.1250000E+03  0.7546771E-02  0.1126479E+00
        -11   -1    0    0    0    0  0.00000000000E+00  0.00000000000E+00  0.12500000000E+03  0.12500000000E+03  0.00000000000E+00 0.  1.
         11   -1    0    0    0    0 -0.00000000000E+00 -0.00000000000E+00 -0.12500000000E+03  0.12500000000E+03  0.00000000000E+00 0. -1.
         24    1    1    2    0    0 -0.80417969973E+02  0.29653789940E+02 -0.42560391132E+02  0.12500000000E+03  0.80419002446E+02 0.  0.
        -24    1    1    2    0    0  0.80417969973E+02 -0.29653789940E+02  0.42560391132E+02  0.12500000000E+03  0.80419002446E+02 0.  0.
</event>
<event>
 4    1  0.1699921E-001  0.1250000E+03  0.7546771E-02  0.1126479E+00
        -11   -1    0    0    0    0  0.00000000000E+00  0.00000000000E+00  0.12500000000E+03  0.12500000000E+03  0.00000000000E+00 0.  1.
         11   -1    0    0    0    0 -0.00000000000E+00 -0.00000000000E+00 -0.12500000000E+03  0.12500000000E+03  0.00000000000E+00 0. -1.
         24    1    1    2    0    0  0.43814782430E+02 -0.64745975305E+02  0.55190647469E+02  0.12500000000E+03  0.80419002446E+02 0.  1.
        -24    1    1    2    0    0 -0.43814782430E+02  0.64745975305E+02 -0.55190647469E+02  0.12500000000E+03  0.80419002446E+02 0. -1.
</event>
<event>
 4    1  0.1699921E-001  0.1250000E+03  0.7546771E-02  0.1126479E+00
        -11   -1    0    0    0    0  0.00000000000E+00  0.00000000000E+00  0.12500000000E+03  0.12500000000E+03  0.00000000000E+00 0.  1.
         11   -1    0    0    0    0 -0.00000000000E+00 -0.00000000000E+00 -0.12500000000E+03  0.12500000000E+03  0.00000000000E+00 0. -1.
         24    1    1    2    0    0  0.40310600906E+01 -0.10110287920E+02  0.95075321079E+02  0.12500000000E+03  0.80419002446E+02 0.  1.
        -24    1    1    2    0    0 -0.40310600906E+01  0.10110287920E+02 -0.95075321079E+02  0.12500000000E+03  0.80419002446E+02 0. -1.
</event>
<event>
 4    1  0.1699921E-001  0.1250000E+03  0.7546771E-02  0.1126479E+00
        -11   -1    0    0    0    0  0.00000000000E+00  0.00000000000E+00  0.12500000000E+03  0.12500000000E+03  0.00000000000E+00 0.  1.
         11   -1    0    0    0    0 -0.00000000000E+00 -0.00000000000E+00 -0.12500000000E+03  0.12500000000E+03  0.00000000000E+00 0. -1.
         24    1    1    2    0    0 -0.48027505152E+02 -0.52529699647E+02  0.63966971552E+02  0.12500000000E+03  0.80419002446E+02 0.  1.
        -24    1    1    2    0    0  0.48027505152E+02  0.52529699647E+02 -0.63966971552E+02  0.12500000000E+03  0.80419002446E+02 0. -1.
</event>
<event>
 4    1  0.1699921E-001  0.1250000E+03  0.7546771E-02  0.1126479E+00
        -11   -1    0    0    0    0  0.00000000000E+00  0.00000000000E+00  0.12500000000E+03  0.12500000000E+03  0.00000000000E+00 0.  1.
         11   -1    0    0    0    0 -0.00000000000E+00 -0.00000000000E+00 -0.12500000000E+03  0.12500000000E+03  0.00000000000E+00 0. -1.
         24    1    1    2    0    0  0.32922686952E+02  0.23557566914E+02  0.86711716455E+02  0.12500000000E+03  0.80419002446E+02 0.  0.
        -24    1    1    2    0    0 -0.32922686952E+02 -0.23557566914E+02 -0.86711716455E+02  0.12500000000E+03  0.80419002446E+02 0.  1.
</event>
<event>
 4    1  0.1699921E-001  0.1250000E+03  0.7546771E-02  0.1126479E+00
        -11   -1    0    0    0    0  0.00000000000E+00  0.00000000000E+00  0.12500000000E+03  0.12500000000E+03  0.00000000000E+00 0.  1.
         11   -1    0    0    0    0 -0.00000000000E+00 -0.00000000000E+00 -0.12500000000E+03  0.12500000000E+03  0.00000000000E+00 0. -1.
         24    1    1    2    0    0  0.20716506728E+02  0.23610837370E+02  0.90394351335E+02  0.12500000000E+03  0.80419002446E+02 0.  1.
        -24    1    1    2    0    0 -0.20716506728E+02 -0.23610837370E+02 -0.90394351335E+02  0.12500000000E+03  0.80419002446E+02 0.  0.
</event>
<event>
 4    1  0.1699921E-001  0.1250000E+03  0.7546771E-02  0.1126479E+00
        -11   -1    0    0    0    0  0.00000000000E+00  0.00000000000E+00  0.12500000000E+03  0.12500000000E+03  0.00000000000E+00 0.  1.
         11   -1    0    0    0    0 -0.00000000000E+00 -0.00000000000E+00 -0.12500000000E+03  0.12500000000E+03  0.00000000000E+00 0. -1.
         24    1    1    2    0    0  0.10927414219E+02  0.72690882749E+02  0.61273250520E+02  0.12500000000E+03  0.80419002446E+02 0.  1.
        -24    1    1    2    0    0 -0.10927414219E+02 -0.72690882749E+02 -0.61273250520E+02  0.12500000000E+03  0.80419002446E+02 0. -1.
</event>
<event>
 4    1  0.1699921E-001  0.1250000E+03  0.7546771E-02  0.1126479E+00
        -11   -1    0    0    0    0  0.00000000000E+00  0.00000000000E+00  0.12500000000E+03  0.12500000000E+03  0.00000000000E+00 0.  1.
         11   -1    0    0    0    0 -0.00000000000E+00 -0.00000000000E+00 -0.12500000000E+03  0.12500000000E+03  0.00000000000E+00 0. -1.
         24    1    1    2    0    0 -0.50132182984E+02  0.16135245013E+02  0.79901202390E+02  0.12500000000E+03  0.80419002446E+02 0.  1.
        -24    1    1    2    0    0  0.50132182984E+02 -0.16135245013E+02 -0.79901202390E+02  0.12500000000E+03  0.80419002446E+02 0. -1.
</event>
<event>
 4    1  0.1699921E-001  0.1250000E+03  0.7546771E-02  0.1126479E+00
        -11   -1    0    0    0    0  0.00000000000E+00  0.00000000000E+00  0.12500000000E+03  0.12500000000E+03  0.00000000000E+00 0.  1.
         11   -1    0    0    0    0 -0.00000000000E+00 -0.00000000000E+00 -0.12500000000E+03  0.12500000000E+03  0.00000000000E+00 0. -1.
         24    1    1    2    0    0 -0.17691328202E+02  0.79256407050E+02 -0.50628281558E+02  0.12500000000E+03  0.80419002446E+02 0. -1.
        -24    1    1    2    0    0  0.17691328202E+02 -0.79256407050E+02  0.50628281558E+02  0.12500000000E+03  0.80419002446E+02 0.  1.
</event>
<event>
 4    1  0.1699921E-001  0.1250000E+03  0.7546771E-02  0.1126479E+00
        -11   -1    0    0    0    0  0.00000000000E+00  0.00000000000E+00  0.12500000000E+03  0.12500000000E+03  0.00000000000E+00 0.  1.
         11   -1    0    0    0    0 -0.00000000000E+00 -0.00000000000E+00 -0.12500000000E+03  0.12500000000E+03  0.00000000000E+00 0. -1.
         24    1    1    2    0    0 -0.66067465854E+02 -0.35395166271E+02  0.59498371456E+02  0.12500000000E+03  0.80419002446E+02 0.  1.
        -24    1    1    2    0    0  0.66067465854E+02  0.35395166271E+02 -0.59498371456E+02  0.12500000000E+03  0.80419002446E+02 0. -1.
</event>
<event>
 4    1  0.1699921E-001  0.1250000E+03  0.7546771E-02  0.1126479E+00
        -11   -1    0    0    0    0  0.00000000000E+00  0.00000000000E+00  0.12500000000E+03  0.12500000000E+03  0.00000000000E+00 0.  1.
         11   -1    0    0    0    0 -0.00000000000E+00 -0.00000000000E+00 -0.12500000000E+03  0.12500000000E+03  0.00000000000E+00 0. -1.
         24    1    1    2    0    0 -0.47307572473E+02  0.40904768403E+02  0.72433262762E+02  0.12500000000E+03  0.80419002446E+02 0.  1.
        -24    1    1    2    0    0  0.47307572473E+02 -0.40904768403E+02 -0.72433262762E+02  0.12500000000E+03  0.80419002446E+02 0. -1.
</event>
<event>
 4    1  0.1699921E-001  0.1250000E+03  0.7546771E-02  0.1126479E+00
        -11   -1    0    0    0    0  0.00000000000E+00  0.00000000000E+00  0.12500000000E+03  0.12500000000E+03  0.00000000000E+00 0.  1.
         11   -1    0    0    0    0 -0.00000000000E+00 -0.00000000000E+00 -0.12500000000E+03  0.12500000000E+03  0.00000000000E+00 0. -1.
         24    1    1    2    0    0  0.53972221057E+02 -0.40873160263E+02  0.67632596948E+02  0.12500000000E+03  0.80419002446E+02 0.  1.
        -24    1    1    2    0    0 -0.53972221057E+02  0.40873160263E+02 -0.67632596948E+02  0.12500000000E+03  0.80419002446E+02 0. -1.
</event>
<event>
 4    1  0.1699921E-001  0.1250000E+03  0.7546771E-02  0.1126479E+00
        -11   -1    0    0    0    0  0.00000000000E+00  0.00000000000E+00  0.12500000000E+03  0.12500000000E+03  0.00000000000E+00 0.  1.
         11   -1    0    0    0    0 -0.00000000000E+00 -0.00000000000E+00 -0.12500000000E+03  0.12500000000E+03  0.00000000000E+00 0. -1.
         24    1    1    2    0    0 -0.84939853405E+02 -0.24269838551E+02  0.36796471106E+02  0.12500000000E+03  0.80419002446E+02 0.  1.
        -24    1    1    2    0    0  0.84939853405E+02  0.24269838551E+02 -0.36796471106E+02  0.12500000000E+03  0.80419002446E+02 0. -1.
</event>
<event>
 4    1  0.1699921E-001  0.1250000E+03  0.7546771E-02  0.1126479E+00
        -11   -1    0    0    0    0  0.00000000000E+00  0.00000000000E+00  0.12500000000E+03  0.12500000000E+03  0.00000000000E+00 0.  1.
         11   -1    0    0    0    0 -0.00000000000E+00 -0.00000000000E+00 -0.12500000000E+03  0.12500000000E+03  0.00000000000E+00 0. -1.
         24    1    1    2    0    0  0.20618898429E+02 -0.53549305953E+02  0.76584051245E+02  0.12500000000E+03  0.80419002446E+02 0.  1.
        -24    1    1    2    0    0 -0.20618898429E+02  0.53549305953E+02 -0.76584051245E+02  0.12500000000E+03  0.80419002446E+02 0. -1.
</event>
<event>
 4    1  0.1699921E-001  0.1250000E+03  0.7546771E-02  0.1126479E+00
        -11   -1    0    0    0    0  0.00000000000E+00  0.00000000000E+00  0.12500000000E+03  0.12500000000E+03  0.00000000000E+00 0.  1.
         11   -1    0    0    0    0 -0.00000000000E+00 -0.00000000000E+00 -0.12500000000E+03  0.12500000000E+03  0.00000000000E+00 0. -1.
         24    1    1    2    0    0  0.84528662769E+02  0.44473219794E+02 -0.59010115486E+01  0.12500000000E+03  0.80419002446E+02 0.  0.
        -24    1    1    2    0    0 -0.84528662769E+02 -0.44473219794E+02  0.59010115486E+01  0.12500000000E+03  0.80419002446E+02 0. -1.
</event>
<event>
 4    1  0.1699921E-001  0.1250000E+03  0.7546771E-02  0.1126479E+00
        -11   -1    0    0    0    0  0.00000000000E+00  0.00000000000E+00  0.12500000000E+03  0.12500000000E+03  0.00000000000E+00 0.  1.
         11   -1    0    0    0    0 -0.00000000000E+00 -0.00000000000E+00 -0.12500000000E+03  0.12500000000E+03  0.00000000000E+00 0. -1.
         24    1    1    2    0    0  0.10113681326E+02  0.16989867735E+02  0.93631415081E+02  0.12500000000E+03  0.80419002446E+02 0.  1.
        -24    1    1    2    0    0 -0.10113681326E+02 -0.16989867735E+02 -0.93631415081E+02  0.12500000000E+03  0.80419002446E+02 0. -1.
</event>
<event>
 4    1  0.1699921E-001  0.1250000E+03  0.7546771E-02  0.1126479E+00
        -11   -1    0    0    0    0  0.00000000000E+00  0.00000000000E+00  0.12500000000E+03  0.12500000000E+03  0.00000000000E+00 0.  1.
         11   -1    0    0    0    0 -0.00000000000E+00 -0.00000000000E+00 -0.12500000000E+03  0.12500000000E+03  0.00000000000E+00 0. -1.
         24    1    1    2    0    0 -0.45416159057E+02 -0.40321130787E+02  0.73955141499E+02  0.12500000000E+03  0.80419002446E+02 0.  1.
        -24    1    1    2    0    0  0.45416159057E+02  0.40321130787E+02 -0.73955141499E+02  0.12500000000E+03  0.80419002446E+02 0. -1.
</event>
<event>
 4    1  0.1699921E-001  0.1250000E+03  0.7546771E-02  0.1126479E+00
        -11   -1    0    0    0    0  0.00000000000E+00  0.00000000000E+00  0.12500000000E+03  0.12500000000E+03  0.00000000000E+00 0.  1.
         11   -1    0    0    0    0 -0.00000000000E+00 -0.00000000000E+00 -0.12500000000E+03  0.12500000000E+03  0.00000000000E+00 0. -1.
         24    1    1    2    0    0 -0.42974825952E+02 -0.80739198008E+02 -0.28144809203E+02  0.12500000000E+03  0.80419002446E+02 0.  0.
        -24    1    1    2    0    0  0.42974825952E+02  0.80739198008E+02  0.28144809203E+02  0.12500000000E+03  0.80419002446E+02 0.  0.
</event>
<event>
 4    1  0.1699921E-001  0.1250000E+03  0.7546771E-02  0.1126479E+00
        -11   -1    0    0    0    0  0.00000000000E+00  0.00000000000E+00  0.12500000000E+03  0.12500000000E+03  0.00000000000E+00 0.  1.
         11   -1    0    0    0    0 -0.00000000000E+00 -0.00000000000E+00 -0.12500000000E+03  0.12500000000E+03  0.00000000000E+00 0. -1.
         24    1    1    2    0    0  0.40071143183E+02 -0.27066452122E+02  0.82580231891E+02  0.12500000000E+03  0.80419002446E+02 0.  1.
        -24    1    1    2    0    0 -0.40071143183E+02  0.27066452122E+02 -0.82580231891E+02  0.12500000000E+03  0.80419002446E+02 0. -1.
</event>
<event>
 4    1  0.1699921E-001  0.1250000E+03  0.7546771E-02  0.1126479E+00
        -11   -1    0    0    0    0  0.00000000000E+00  0.00000000000E+00  0.12500000000E+03  0.12500000000E+03  0.00000000000E+00 0.  1.
         11   -1    0    0    0    0 -0.00000000000E+00 -0.00000000000E+00 -0.12500000000E+03  0.12500000000E+03  0.00000000000E+00 0. -1.
         24    1    1    2    0    0 -0.94042242739E+02  0.10364233848E+02 -0.14367438287E+02  0.12500000000E+03  0.80419002446E+02 0.  1.
        -24    1    1    2    0    0  0.94042242739E+02 -0.10364233848E+02  0.14367438287E+02  0.12500000000E+03  0.80419002446E+02 0. -1.
</event>
<event>
 4    1  0.1699921E-001  0.1250000E+03  0.7546771E-02  0.1126479E+00
        -11   -1    0    0    0    0  0.00000000000E+00  0.00000000000E+00  0.12500000000E+03  0.12500000000E+03  0.00000000000E+00 0.  1.
         11   -1    0    0    0    0 -0.00000000000E+00 -0.00000000000E+00 -0.12500000000E+03  0.12500000000E+03  0.00000000000E+00 0. -1.
         24    1    1    2    0    0  0.48476876358E+02 -0.29173227897E+02  0.77179655857E+02  0.12500000000E+03  0.80419002446E+02 0.  1.
        -24    1    1    2    0    0 -0.48476876358E+02  0.29173227897E+02 -0.77179655857E+02  0.12500000000E+03  0.80419002446E+02 0. -1.
</event>
<event>
 4    1  0.1699921E-001  0.1250000E+03  0.7546771E-02  0.1126479E+00
        -11   -1    0    0    0    0  0.00000000000E+00  0.00000000000E+00  0.12500000000E+03  0.12500000000E+03  0.00000000000E+00 0.  1.
         11   -1    0    0    0    0 -0.00000000000E+00 -0.00000000000E+00 -0.12500000000E+03  0.12500000000E+03  0.00000000000E+00 0. -1.
         24    1    1    2    0    0  0.79050962919E+02  0.16101266550E+02  0.51473085420E+02  0.12500000000E+03  0.80419002446E+02 0.  1.
        -24    1    1    2    0    0 -0.79050962919E+02 -0.16101266550E+02 -0.51473085420E+02  0.12500000000E+03  0.80419002446E+02 0. -1.
</event>
<event>
 4    1  0.1699921E-001  0.1250000E+03  0.7546771E-02  0.1126479E+00
        -11   -1    0    0    0    0  0.00000000000E+00  0.00000000000E+00  0.12500000000E+03  0.12500000000E+03  0.00000000000E+00 0.  1.
         11   -1    0    0    0    0 -0.00000000000E+00 -0.00000000000E+00 -0.12500000000E+03  0.12500000000E+03  0.00000000000E+00 0. -1.
         24    1    1    2    0    0 -0.48720393733E+02 -0.37716451797E+02  0.73222787054E+02  0.12500000000E+03  0.80419002446E+02 0. -1.
        -24    1    1    2    0    0  0.48720393733E+02  0.37716451797E+02 -0.73222787054E+02  0.12500000000E+03  0.80419002446E+02 0.  1.
</event>
<event>
 4    1  0.1699921E-001  0.1250000E+03  0.7546771E-02  0.1126479E+00
        -11   -1    0    0    0    0  0.00000000000E+00  0.00000000000E+00  0.12500000000E+03  0.12500000000E+03  0.00000000000E+00 0.  1.
         11   -1    0    0    0    0 -0.00000000000E+00 -0.00000000000E+00 -0.12500000000E+03  0.12500000000E+03  0.00000000000E+00 0. -1.
         24    1    1    2    0    0 -0.50365002006E+02  0.22548978578E+02  0.78183720708E+02  0.12500000000E+03  0.80419002446E+02 0.  1.
        -24    1    1    2    0    0  0.50365002006E+02 -0.22548978578E+02 -0.78183720708E+02  0.12500000000E+03  0.80419002446E+02 0. -1.
</event>
<event>
 4    1  0.1699921E-001  0.1250000E+03  0.7546771E-02  0.1126479E+00
        -11   -1    0    0    0    0  0.00000000000E+00  0.00000000000E+00  0.12500000000E+03  0.12500000000E+03  0.00000000000E+00 0.  1.
         11   -1    0    0    0    0 -0.00000000000E+00 -0.00000000000E+00 -0.12500000000E+03  0.12500000000E+03  0.00000000000E+00 0. -1.
         24    1    1    2    0    0 -0.27756560102E+02 -0.12862262330E+02  0.90674801487E+02  0.12500000000E+03  0.80419002446E+02 0. -1.
        -24    1    1    2    0    0  0.27756560102E+02  0.12862262330E+02 -0.90674801487E+02  0.12500000000E+03  0.80419002446E+02 0.  1.
</event>
<event>
 4    1  0.1699921E-001  0.1250000E+03  0.7546771E-02  0.1126479E+00
        -11   -1    0    0    0    0  0.00000000000E+00  0.00000000000E+00  0.12500000000E+03  0.12500000000E+03  0.00000000000E+00 0.  1.
         11   -1    0    0    0    0 -0.00000000000E+00 -0.00000000000E+00 -0.12500000000E+03  0.12500000000E+03  0.00000000000E+00 0. -1.
         24    1    1    2    0    0 -0.73135520734E+01 -0.13241601040E+02  0.94493153210E+02  0.12500000000E+03  0.80419002446E+02 0.  1.
        -24    1    1    2    0    0  0.73135520734E+01  0.13241601040E+02 -0.94493153210E+02  0.12500000000E+03  0.80419002446E+02 0.  0.
</event>
<event>
 4    1  0.1699921E-001  0.1250000E+03  0.7546771E-02  0.1126479E+00
        -11   -1    0    0    0    0  0.00000000000E+00  0.00000000000E+00  0.12500000000E+03  0.12500000000E+03  0.00000000000E+00 0.  1.
         11   -1    0    0    0    0 -0.00000000000E+00 -0.00000000000E+00 -0.12500000000E+03  0.12500000000E+03  0.00000000000E+00 0. -1.
         24    1    1    2    0    0  0.35746658533E+02  0.27651161147E+01  0.88726064841E+02  0.12500000000E+03  0.80419002446E+02 0.  1.
        -24    1    1    2    0    0 -0.35746658533E+02 -0.27651161147E+01 -0.88726064841E+02  0.12500000000E+03  0.80419002446E+02 0. -1.
</event>
<event>
 4    1  0.1699921E-001  0.1250000E+03  0.7546771E-02  0.1126479E+00
        -11   -1    0    0    0    0  0.00000000000E+00  0.00000000000E+00  0.12500000000E+03  0.12500000000E+03  0.00000000000E+00 0.  1.
         11   -1    0    0    0    0 -0.00000000000E+00 -0.00000000000E+00 -0.12500000000E+03  0.12500000000E+03  0.00000000000E+00 0. -1.
         24    1    1    2    0    0 -0.59878746899E+02  0.73643443546E+02  0.12205037410E+02  0.12500000000E+03  0.80419002446E+02 0.  1.
        -24    1    1    2    0    0  0.59878746899E+02 -0.73643443546E+02 -0.12205037410E+02  0.12500000000E+03  0.80419002446E+02 0. -1.
</event>
<event>
 4    1  0.1699921E-001  0.1250000E+03  0.7546771E-02  0.1126479E+00
        -11   -1    0    0    0    0  0.00000000000E+00  0.00000000000E+00  0.12500000000E+03  0.12500000000E+03  0.00000000000E+00 0.  1.
         11   -1    0    0    0    0 -0.00000000000E+00 -0.00000000000E+00 -0.12500000000E+03  0.12500000000E+03  0.00000000000E+00 0. -1.
         24    1    1    2    0    0  0.66370172836E+02  0.55524357258E+01  0.68716480271E+02  0.12500000000E+03  0.80419002446E+02 0.  1.
        -24    1    1    2    0    0 -0.66370172836E+02 -0.55524357258E+01 -0.68716480271E+02  0.12500000000E+03  0.80419002446E+02 0. -1.
</event>
<event>
 4    1  0.1699921E-001  0.1250000E+03  0.7546771E-02  0.1126479E+00
        -11   -1    0    0    0    0  0.00000000000E+00  0.00000000000E+00  0.12500000000E+03  0.12500000000E+03  0.00000000000E+00 0.  1.
         11   -1    0    0    0    0 -0.00000000000E+00 -0.00000000000E+00 -0.12500000000E+03  0.12500000000E+03  0.00000000000E+00 0. -1.
         24    1    1    2    0    0 -0.41446063699E+01 -0.44522343802E+02  0.84607134369E+02  0.12500000000E+03  0.80419002446E+02 0.  1.
        -24    1    1    2    0    0  0.41446063699E+01  0.44522343802E+02 -0.84607134369E+02  0.12500000000E+03  0.80419002446E+02 0. -1.
</event>
<event>
 4    1  0.1699921E-001  0.1250000E+03  0.7546771E-02  0.1126479E+00
        -11   -1    0    0    0    0  0.00000000000E+00  0.00000000000E+00  0.12500000000E+03  0.12500000000E+03  0.00000000000E+00 0.  1.
         11   -1    0    0    0    0 -0.00000000000E+00 -0.00000000000E+00 -0.12500000000E+03  0.12500000000E+03  0.00000000000E+00 0. -1.
         24    1    1    2    0    0 -0.58979047384E+01 -0.71697834373E+02  0.63106412602E+02  0.12500000000E+03  0.80419002446E+02 0.  1.
        -24    1    1    2    0    0  0.58979047384E+01  0.71697834373E+02 -0.63106412602E+02  0.12500000000E+03  0.80419002446E+02 0. -1.
</event>
<event>
 4    1  0.1699921E-001  0.1250000E+03  0.7546771E-02  0.1126479E+00
        -11   -1    0    0    0    0  0.00000000000E+00  0.00000000000E+00  0.12500000000E+03  0.12500000000E+03  0.00000000000E+00 0.  1.
         11   -1    0    0    0    0 -0.00000000000E+00 -0.00000000000E+00 -0.12500000000E+03  0.12500000000E+03  0.00000000000E+00 0. -1.
         24    1    1    2    0    0 -0.54325886293E+02  0.86911259786E+01  0.78300360493E+02  0.12500000000E+03  0.80419002446E+02 0. -1.
        -24    1    1    2    0    0  0.54325886293E+02 -0.86911259786E+01 -0.78300360493E+02  0.12500000000E+03  0.80419002446E+02 0.  1.
</event>
<event>
 4    1  0.1699921E-001  0.1250000E+03  0.7546771E-02  0.1126479E+00
        -11   -1    0    0    0    0  0.00000000000E+00  0.00000000000E+00  0.12500000000E+03  0.12500000000E+03  0.00000000000E+00 0.  1.
         11   -1    0    0    0    0 -0.00000000000E+00 -0.00000000000E+00 -0.12500000000E+03  0.12500000000E+03  0.00000000000E+00 0. -1.
         24    1    1    2    0    0  0.21299697612E+02  0.90254111777E+02  0.23628420062E+02  0.12500000000E+03  0.80419002446E+02 0.  1.
        -24    1    1    2    0    0 -0.21299697612E+02 -0.90254111777E+02 -0.23628420062E+02  0.12500000000E+03  0.80419002446E+02 0. -1.
</event>
<event>
 4    1  0.1699921E-001  0.1250000E+03  0.7546771E-02  0.1126479E+00
        -11   -1    0    0    0    0  0.00000000000E+00  0.00000000000E+00  0.12500000000E+03  0.12500000000E+03  0.00000000000E+00 0.  1.
         11   -1    0    0    0    0 -0.00000000000E+00 -0.00000000000E+00 -0.12500000000E+03  0.12500000000E+03  0.00000000000E+00 0. -1.
         24    1    1    2    0    0 -0.87950287640E+02 -0.34742560755E+02  0.14679421717E+02  0.12500000000E+03  0.80419002446E+02 0.  0.
        -24    1    1    2    0    0  0.87950287640E+02  0.34742560755E+02 -0.14679421717E+02  0.12500000000E+03  0.80419002446E+02 0.  0.
</event>
<event>
 4    1  0.1699921E-001  0.1250000E+03  0.7546771E-02  0.1126479E+00
        -11   -1    0    0    0    0  0.00000000000E+00  0.00000000000E+00  0.12500000000E+03  0.12500000000E+03  0.00000000000E+00 0.  1.
         11   -1    0    0    0    0 -0.00000000000E+00 -0.00000000000E+00 -0.12500000000E+03  0.12500000000E+03  0.00000000000E+00 0. -1.
         24    1    1    2    0    0  0.58045634740E+02 -0.13537023999E+02  0.74868132837E+02  0.12500000000E+03  0.80419002446E+02 0.  1.
        -24    1    1    2    0    0 -0.58045634740E+02  0.13537023999E+02 -0.74868132837E+02  0.12500000000E+03  0.80419002446E+02 0. -1.
</event>
<event>
 4    1  0.1699921E-001  0.1250000E+03  0.7546771E-02  0.1126479E+00
        -11   -1    0    0    0    0  0.00000000000E+00  0.00000000000E+00  0.12500000000E+03  0.12500000000E+03  0.00000000000E+00 0.  1.
         11   -1    0    0    0    0 -0.00000000000E+00 -0.00000000000E+00 -0.12500000000E+03  0.12500000000E+03  0.00000000000E+00 0. -1.
         24    1    1    2    0    0 -0.78310655431E+02  0.34132914751E+02  0.43129681452E+02  0.12500000000E+03  0.80419002446E+02 0.  1.
        -24    1    1    2    0    0  0.78310655431E+02 -0.34132914751E+02 -0.43129681452E+02  0.12500000000E+03  0.80419002446E+02 0. -1.
</event>
<event>
 4    1  0.1699921E-001  0.1250000E+03  0.7546771E-02  0.1126479E+00
        -11   -1    0    0    0    0  0.00000000000E+00  0.00000000000E+00  0.12500000000E+03  0.12500000000E+03  0.00000000000E+00 0.  1.
         11   -1    0    0    0    0 -0.00000000000E+00 -0.00000000000E+00 -0.12500000000E+03  0.12500000000E+03  0.00000000000E+00 0. -1.
         24    1    1    2    0    0  0.45450283906E+02  0.24030594473E+02  0.80712986983E+02  0.12500000000E+03  0.80419002446E+02 0.  1.
        -24    1    1    2    0    0 -0.45450283906E+02 -0.24030594473E+02 -0.80712986983E+02  0.12500000000E+03  0.80419002446E+02 0. -1.
</event>
<event>
 4    1  0.1699921E-001  0.1250000E+03  0.7546771E-02  0.1126479E+00
        -11   -1    0    0    0    0  0.00000000000E+00  0.00000000000E+00  0.12500000000E+03  0.12500000000E+03  0.00000000000E+00 0.  1.
         11   -1    0    0    0    0 -0.00000000000E+00 -0.00000000000E+00 -0.12500000000E+03  0.12500000000E+03  0.00000000000E+00 0. -1.
         24    1    1    2    0    0  0.21050797047E+02 -0.68218231178E+02  0.63725355427E+02  0.12500000000E+03  0.80419002446E+02 0.  1.
        -24    1    1    2    0    0 -0.21050797047E+02  0.68218231178E+02 -0.63725355427E+02  0.12500000000E+03  0.80419002446E+02 0. -1.
</event>
<event>
 4    1  0.1699921E-001  0.1250000E+03  0.7546771E-02  0.1126479E+00
        -11   -1    0    0    0    0  0.00000000000E+00  0.00000000000E+00  0.12500000000E+03  0.12500000000E+03  0.00000000000E+00 0.  1.
         11   -1    0    0    0    0 -0.00000000000E+00 -0.00000000000E+00 -0.12500000000E+03  0.12500000000E+03  0.00000000000E+00 0. -1.
         24    1    1    2    0    0 -0.46704008550E+02  0.53175408197E+02  0.64411921211E+02  0.12500000000E+03  0.80419002446E+02 0.  0.
        -24    1    1    2    0    0  0.46704008550E+02 -0.53175408197E+02 -0.64411921211E+02  0.12500000000E+03  0.80419002446E+02 0. -1.
</event>
<event>
 4    1  0.1699921E-001  0.1250000E+03  0.7546771E-02  0.1126479E+00
        -11   -1    0    0    0    0  0.00000000000E+00  0.00000000000E+00  0.12500000000E+03  0.12500000000E+03  0.00000000000E+00 0.  1.
         11   -1    0    0    0    0 -0.00000000000E+00 -0.00000000000E+00 -0.12500000000E+03  0.12500000000E+03  0.00000000000E+00 0. -1.
         24    1    1    2    0    0  0.35980122522E+02 -0.22157375715E+02  0.85861898013E+02  0.12500000000E+03  0.80419002446E+02 0.  1.
        -24    1    1    2    0    0 -0.35980122522E+02  0.22157375715E+02 -0.85861898013E+02  0.12500000000E+03  0.80419002446E+02 0. -1.
</event>
<event>
 4    1  0.1699921E-001  0.1250000E+03  0.7546771E-02  0.1126479E+00
        -11   -1    0    0    0    0  0.00000000000E+00  0.00000000000E+00  0.12500000000E+03  0.12500000000E+03  0.00000000000E+00 0.  1.
         11   -1    0    0    0    0 -0.00000000000E+00 -0.00000000000E+00 -0.12500000000E+03  0.12500000000E+03  0.00000000000E+00 0. -1.
         24    1    1    2    0    0  0.32795318619E+02 -0.32806683185E+02  0.83701688518E+02  0.12500000000E+03  0.80419002446E+02 0.  1.
        -24    1    1    2    0    0 -0.32795318619E+02  0.32806683185E+02 -0.83701688518E+02  0.12500000000E+03  0.80419002446E+02 0. -1.
</event>
<event>
 4    1  0.1699921E-001  0.1250000E+03  0.7546771E-02  0.1126479E+00
        -11   -1    0    0    0    0  0.00000000000E+00  0.00000000000E+00  0.12500000000E+03  0.12500000000E+03  0.00000000000E+00 0.  1.
         11   -1    0    0    0    0 -0.00000000000E+00 -0.00000000000E+00 -0.12500000000E+03  0.12500000000E+03  0.00000000000E+00 0. -1.
         24    1    1    2    0    0  0.35171238021E+02 -0.70792857596E+02  0.53936438286E+02  0.12500000000E+03  0.80419002446E+02 0.  1.
        -24    1    1    2    0    0 -0.35171238021E+02  0.70792857596E+02 -0.53936438286E+02  0.12500000000E+03  0.80419002446E+02 0. -1.
</event>
<event>
 4    1  0.1699921E-001  0.1250000E+03  0.7546771E-02  0.1126479E+00
        -11   -1    0    0    0    0  0.00000000000E+00  0.00000000000E+00  0.12500000000E+03  0.12500000000E+03  0.00000000000E+00 0.  1.
         11   -1    0    0    0    0 -0.00000000000E+00 -0.00000000000E+00 -0.12500000000E+03  0.12500000000E+03  0.00000000000E+00 0. -1.
         24    1    1    2    0    0  0.92657007688E+02 -0.97544864881E+01  0.21847493341E+02  0.12500000000E+03  0.80419002446E+02 0.  1.
        -24    1    1    2    0    0 -0.92657007688E+02  0.97544864881E+01 -0.21847493341E+02  0.12500000000E+03  0.80419002446E+02 0. -1.
</event>
<event>
 4    1  0.1699921E-001  0.1250000E+03  0.7546771E-02  0.1126479E+00
        -11   -1    0    0    0    0  0.00000000000E+00  0.00000000000E+00  0.12500000000E+03  0.12500000000E+03  0.00000000000E+00 0.  1.
         11   -1    0    0    0    0 -0.00000000000E+00 -0.00000000000E+00 -0.12500000000E+03  0.12500000000E+03  0.00000000000E+00 0. -1.
         24    1    1    2    0    0  0.47627764368E+02  0.40508515882E+01  0.82903381766E+02  0.12500000000E+03  0.80419002446E+02 0.  1.
        -24    1    1    2    0    0 -0.47627764368E+02 -0.40508515882E+01 -0.82903381766E+02  0.12500000000E+03  0.80419002446E+02 0. -1.
</event>
<event>
 4    1  0.1699921E-001  0.1250000E+03  0.7546771E-02  0.1126479E+00
        -11   -1    0    0    0    0  0.00000000000E+00  0.00000000000E+00  0.12500000000E+03  0.12500000000E+03  0.00000000000E+00 0.  1.
         11   -1    0    0    0    0 -0.00000000000E+00 -0.00000000000E+00 -0.12500000000E+03  0.12500000000E+03  0.00000000000E+00 0. -1.
         24    1    1    2    0    0 -0.91516662907E+02 -0.48786526821E+01 -0.27544204545E+02  0.12500000000E+03  0.80419002446E+02 0. -1.
        -24    1    1    2    0    0  0.91516662907E+02  0.48786526821E+01  0.27544204545E+02  0.12500000000E+03  0.80419002446E+02 0.  1.
</event>
<event>
 4    1  0.1699921E-001  0.1250000E+03  0.7546771E-02  0.1126479E+00
        -11   -1    0    0    0    0  0.00000000000E+00  0.00000000000E+00  0.12500000000E+03  0.12500000000E+03  0.00000000000E+00 0.  1.
         11   -1    0    0    0    0 -0.00000000000E+00 -0.00000000000E+00 -0.12500000000E+03  0.12500000000E+03  0.00000000000E+00 0. -1.
         24    1    1    2    0    0  0.27339918401E+01  0.94440671377E+02  0.15207528537E+02  0.12500000000E+03  0.80419002446E+02 0. -1.
        -24    1    1    2    0    0 -0.27339918401E+01 -0.94440671377E+02 -0.15207528537E+02  0.12500000000E+03  0.80419002446E+02 0.  1.
</event>
<event>
 4    1  0.1699921E-001  0.1250000E+03  0.7546771E-02  0.1126479E+00
        -11   -1    0    0    0    0  0.00000000000E+00  0.00000000000E+00  0.12500000000E+03  0.12500000000E+03  0.00000000000E+00 0.  1.
         11   -1    0    0    0    0 -0.00000000000E+00 -0.00000000000E+00 -0.12500000000E+03  0.12500000000E+03  0.00000000000E+00 0. -1.
         24    1    1    2    0    0 -0.76489091186E+01 -0.40883261692E+02  0.86184900930E+02  0.12500000000E+03  0.80419002446E+02 0.  1.
        -24    1    1    2    0    0  0.76489091186E+01  0.40883261692E+02 -0.86184900930E+02  0.12500000000E+03  0.80419002446E+02 0. -1.
</event>
<event>
 4    1  0.1699921E-001  0.1250000E+03  0.7546771E-02  0.1126479E+00
        -11   -1    0    0    0    0  0.00000000000E+00  0.00000000000E+00  0.12500000000E+03  0.12500000000E+03  0.00000000000E+00 0.  1.
         11   -1    0    0    0    0 -0.00000000000E+00 -0.00000000000E+00 -0.12500000000E+03  0.12500000000E+03  0.00000000000E+00 0. -1.
         24    1    1    2    0    0 -0.67368787953E+02 -0.26049367192E+01  0.67914981852E+02  0.12500000000E+03  0.80419002446E+02 0.  1.
        -24    1    1    2    0    0  0.67368787953E+02  0.26049367192E+01 -0.67914981852E+02  0.12500000000E+03  0.80419002446E+02 0. -1.
</event>
<event>
 4    1  0.1699921E-001  0.1250000E+03  0.7546771E-02  0.1126479E+00
        -11   -1    0    0    0    0  0.00000000000E+00  0.00000000000E+00  0.12500000000E+03  0.12500000000E+03  0.00000000000E+00 0.  1.
         11   -1    0    0    0    0 -0.00000000000E+00 -0.00000000000E+00 -0.12500000000E+03  0.12500000000E+03  0.00000000000E+00 0. -1.
         24    1    1    2    0    0 -0.45710597728E+02 -0.11885087018E+02  0.83229021426E+02  0.12500000000E+03  0.80419002446E+02 0.  1.
        -24    1    1    2    0    0  0.45710597728E+02  0.11885087018E+02 -0.83229021426E+02  0.12500000000E+03  0.80419002446E+02 0. -1.
</event>
<event>
 4    1  0.1699921E-001  0.1250000E+03  0.7546771E-02  0.1126479E+00
        -11   -1    0    0    0    0  0.00000000000E+00  0.00000000000E+00  0.12500000000E+03  0.12500000000E+03  0.00000000000E+00 0.  1.
         11   -1    0    0    0    0 -0.00000000000E+00 -0.00000000000E+00 -0.12500000000E+03  0.12500000000E+03  0.00000000000E+00 0. -1.
         24    1    1    2    0    0  0.34793181671E+02 -0.29938700901E+02  0.83969594159E+02  0.12500000000E+03  0.80419002446E+02 0.  1.
        -24    1    1    2    0    0 -0.34793181671E+02  0.29938700901E+02 -0.83969594159E+02  0.12500000000E+03  0.80419002446E+02 0. -1.
</event>
<event>
 4    1  0.1699921E-001  0.1250000E+03  0.7546771E-02  0.1126479E+00
        -11   -1    0    0    0    0  0.00000000000E+00  0.00000000000E+00  0.12500000000E+03  0.12500000000E+03  0.00000000000E+00 0.  1.
         11   -1    0    0    0    0 -0.00000000000E+00 -0.00000000000E+00 -0.12500000000E+03  0.12500000000E+03  0.00000000000E+00 0. -1.
         24    1    1    2    0    0  0.13335020980E+02 -0.93244571944E+01  0.94302787653E+02  0.12500000000E+03  0.80419002446E+02 0.  1.
        -24    1    1    2    0    0 -0.13335020980E+02  0.93244571944E+01 -0.94302787653E+02  0.12500000000E+03  0.80419002446E+02 0.  0.
</event>
<event>
 4    1  0.1699921E-001  0.1250000E+03  0.7546771E-02  0.1126479E+00
        -11   -1    0    0    0    0  0.00000000000E+00  0.00000000000E+00  0.12500000000E+03  0.12500000000E+03  0.00000000000E+00 0.  1.
         11   -1    0    0    0    0 -0.00000000000E+00 -0.00000000000E+00 -0.12500000000E+03  0.12500000000E+03  0.00000000000E+00 0. -1.
         24    1    1    2    0    0 -0.48118844903E+02 -0.55287471589E+02  0.61527687232E+02  0.12500000000E+03  0.80419002446E+02 0.  1.
        -24    1    1    2    0    0  0.48118844903E+02  0.55287471589E+02 -0.61527687232E+02  0.12500000000E+03  0.80419002446E+02 0. -1.
</event>
<event>
 4    1  0.1699921E-001  0.1250000E+03  0.7546771E-02  0.1126479E+00
        -11   -1    0    0    0    0  0.00000000000E+00  0.00000000000E+00  0.12500000000E+03  0.12500000000E+03  0.00000000000E+00 0.  1.
         11   -1    0    0    0    0 -0.00000000000E+00 -0.00000000000E+00 -0.12500000000E+03  0.12500000000E+03  0.00000000000E+00 0. -1.
         24    1    1    2    0    0 -0.10093218142E+02  0.27666013782E+02  0.91052197528E+02  0.12500000000E+03  0.80419002446E+02 0.  1.
        -24    1    1    2    0    0  0.10093218142E+02 -0.27666013782E+02 -0.91052197528E+02  0.12500000000E+03  0.80419002446E+02 0. -1.
</event>
<event>
 4    1  0.1699921E-001  0.1250000E+03  0.7546771E-02  0.1126479E+00
        -11   -1    0    0    0    0  0.00000000000E+00  0.00000000000E+00  0.12500000000E+03  0.12500000000E+03  0.00000000000E+00 0.  1.
         11   -1    0    0    0    0 -0.00000000000E+00 -0.00000000000E+00 -0.12500000000E+03  0.12500000000E+03  0.00000000000E+00 0. -1.
         24    1    1    2    0    0  0.10471624736E+02 -0.75329089376E+02 -0.58083193910E+02  0.12500000000E+03  0.80419002446E+02 0. -1.
        -24    1    1    2    0    0 -0.10471624736E+02  0.75329089376E+02  0.58083193910E+02  0.12500000000E+03  0.80419002446E+02 0.  1.
</event>
<event>
 4    1  0.1699921E-001  0.1250000E+03  0.7546771E-02  0.1126479E+00
        -11   -1    0    0    0    0  0.00000000000E+00  0.00000000000E+00  0.12500000000E+03  0.12500000000E+03  0.00000000000E+00 0.  1.
         11   -1    0    0    0    0 -0.00000000000E+00 -0.00000000000E+00 -0.12500000000E+03  0.12500000000E+03  0.00000000000E+00 0. -1.
         24    1    1    2    0    0  0.92665699948E+01 -0.20480526941E+02  0.93018615032E+02  0.12500000000E+03  0.80419002446E+02 0.  1.
        -24    1    1    2    0    0 -0.92665699948E+01  0.20480526941E+02 -0.93018615032E+02  0.12500000000E+03  0.80419002446E+02 0. -1.
</event>
<event>
 4    1  0.1699921E-001  0.1250000E+03  0.7546771E-02  0.1126479E+00
        -11   -1    0    0    0    0  0.00000000000E+00  0.00000000000E+00  0.12500000000E+03  0.12500000000E+03  0.00000000000E+00 0.  1.
         11   -1    0    0    0    0 -0.00000000000E+00 -0.00000000000E+00 -0.12500000000E+03  0.12500000000E+03  0.00000000000E+00 0. -1.
         24    1    1    2    0    0 -0.23686527079E+02  0.16438961802E+02  0.91249619262E+02  0.12500000000E+03  0.80419002446E+02 0.  1.
        -24    1    1    2    0    0  0.23686527079E+02 -0.16438961802E+02 -0.91249619262E+02  0.12500000000E+03  0.80419002446E+02 0. -1.
</event>
<event>
 4    1  0.1699921E-001  0.1250000E+03  0.7546771E-02  0.1126479E+00
        -11   -1    0    0    0    0  0.00000000000E+00  0.00000000000E+00  0.12500000000E+03  0.12500000000E+03  0.00000000000E+00 0.  1.
         11   -1    0    0    0    0 -0.00000000000E+00 -0.00000000000E+00 -0.12500000000E+03  0.12500000000E+03  0.00000000000E+00 0. -1.
         24    1    1    2    0    0  0.59899086470E+02  0.24203754327E+02  0.70597887802E+02  0.12500000000E+03  0.80419002446E+02 0.  1.
        -24    1    1    2    0    0 -0.59899086470E+02 -0.24203754327E+02 -0.70597887802E+02  0.12500000000E+03  0.80419002446E+02 0. -1.
</event>
<event>
 4    1  0.1699921E-001  0.1250000E+03  0.7546771E-02  0.1126479E+00
        -11   -1    0    0    0    0  0.00000000000E+00  0.00000000000E+00  0.12500000000E+03  0.12500000000E+03  0.00000000000E+00 0.  1.
         11   -1    0    0    0    0 -0.00000000000E+00 -0.00000000000E+00 -0.12500000000E+03  0.12500000000E+03  0.00000000000E+00 0. -1.
         24    1    1    2    0    0  0.65359220244E+02  0.46595097027E+02  0.52104254220E+02  0.12500000000E+03  0.80419002446E+02 0.  0.
        -24    1    1    2    0    0 -0.65359220244E+02 -0.46595097027E+02 -0.52104254220E+02  0.12500000000E+03  0.80419002446E+02 0. -1.
</event>
<event>
 4    1  0.1699921E-001  0.1250000E+03  0.7546771E-02  0.1126479E+00
        -11   -1    0    0    0    0  0.00000000000E+00  0.00000000000E+00  0.12500000000E+03  0.12500000000E+03  0.00000000000E+00 0.  1.
         11   -1    0    0    0    0 -0.00000000000E+00 -0.00000000000E+00 -0.12500000000E+03  0.12500000000E+03  0.00000000000E+00 0. -1.
         24    1    1    2    0    0  0.62905836355E+02  0.15273081027E+02  0.70479591330E+02  0.12500000000E+03  0.80419002446E+02 0.  1.
        -24    1    1    2    0    0 -0.62905836355E+02 -0.15273081027E+02 -0.70479591330E+02  0.12500000000E+03  0.80419002446E+02 0. -1.
</event>
<event>
 4    1  0.1699921E-001  0.1250000E+03  0.7546771E-02  0.1126479E+00
        -11   -1    0    0    0    0  0.00000000000E+00  0.00000000000E+00  0.12500000000E+03  0.12500000000E+03  0.00000000000E+00 0.  1.
         11   -1    0    0    0    0 -0.00000000000E+00 -0.00000000000E+00 -0.12500000000E+03  0.12500000000E+03  0.00000000000E+00 0. -1.
         24    1    1    2    0    0  0.99172550681E+01  0.50586374459E+02  0.80625373281E+02  0.12500000000E+03  0.80419002446E+02 0. -1.
        -24    1    1    2    0    0 -0.99172550681E+01 -0.50586374459E+02 -0.80625373281E+02  0.12500000000E+03  0.80419002446E+02 0.  0.
</event>
<event>
 4    1  0.1699921E-001  0.1250000E+03  0.7546771E-02  0.1126479E+00
        -11   -1    0    0    0    0  0.00000000000E+00  0.00000000000E+00  0.12500000000E+03  0.12500000000E+03  0.00000000000E+00 0.  1.
         11   -1    0    0    0    0 -0.00000000000E+00 -0.00000000000E+00 -0.12500000000E+03  0.12500000000E+03  0.00000000000E+00 0. -1.
         24    1    1    2    0    0 -0.95036136441E+02  0.10195595308E+02  0.46868595394E+01  0.12500000000E+03  0.80419002446E+02 0.  1.
        -24    1    1    2    0    0  0.95036136441E+02 -0.10195595308E+02 -0.46868595394E+01  0.12500000000E+03  0.80419002446E+02 0.  0.
</event>
<event>
 4    1  0.1699921E-001  0.1250000E+03  0.7546771E-02  0.1126479E+00
        -11   -1    0    0    0    0  0.00000000000E+00  0.00000000000E+00  0.12500000000E+03  0.12500000000E+03  0.00000000000E+00 0.  1.
         11   -1    0    0    0    0 -0.00000000000E+00 -0.00000000000E+00 -0.12500000000E+03  0.12500000000E+03  0.00000000000E+00 0. -1.
         24    1    1    2    0    0 -0.79929154700E+02 -0.45059642729E+02  0.27179824717E+02  0.12500000000E+03  0.80419002446E+02 0.  0.
        -24    1    1    2    0    0  0.79929154700E+02  0.45059642729E+02 -0.27179824717E+02  0.12500000000E+03  0.80419002446E+02 0. -1.
</event>
<event>
 4    1  0.1699921E-001  0.1250000E+03  0.7546771E-02  0.1126479E+00
        -11   -1    0    0    0    0  0.00000000000E+00  0.00000000000E+00  0.12500000000E+03  0.12500000000E+03  0.00000000000E+00 0.  1.
         11   -1    0    0    0    0 -0.00000000000E+00 -0.00000000000E+00 -0.12500000000E+03  0.12500000000E+03  0.00000000000E+00 0. -1.
         24    1    1    2    0    0 -0.47110380843E+02 -0.47219744851E+02  0.68619907888E+02  0.12500000000E+03  0.80419002446E+02 0.  1.
        -24    1    1    2    0    0  0.47110380843E+02  0.47219744851E+02 -0.68619907888E+02  0.12500000000E+03  0.80419002446E+02 0. -1.
</event>
<event>
 4    1  0.1699921E-001  0.1250000E+03  0.7546771E-02  0.1126479E+00
        -11   -1    0    0    0    0  0.00000000000E+00  0.00000000000E+00  0.12500000000E+03  0.12500000000E+03  0.00000000000E+00 0.  1.
         11   -1    0    0    0    0 -0.00000000000E+00 -0.00000000000E+00 -0.12500000000E+03  0.12500000000E+03  0.00000000000E+00 0. -1.
         24    1    1    2    0    0  0.54706873096E+01  0.15536965706E+02  0.94268013253E+02  0.12500000000E+03  0.80419002446E+02 0.  0.
        -24    1    1    2    0    0 -0.54706873096E+01 -0.15536965706E+02 -0.94268013253E+02  0.12500000000E+03  0.80419002446E+02 0.  0.
</event>
<event>
 4    1  0.1699921E-001  0.1250000E+03  0.7546771E-02  0.1126479E+00
        -11   -1    0    0    0    0  0.00000000000E+00  0.00000000000E+00  0.12500000000E+03  0.12500000000E+03  0.00000000000E+00 0.  1.
         11   -1    0    0    0    0 -0.00000000000E+00 -0.00000000000E+00 -0.12500000000E+03  0.12500000000E+03  0.00000000000E+00 0. -1.
         24    1    1    2    0    0  0.87108051922E+01 -0.42186459970E+02  0.85452960825E+02  0.12500000000E+03  0.80419002446E+02 0.  1.
        -24    1    1    2    0    0 -0.87108051922E+01  0.42186459970E+02 -0.85452960825E+02  0.12500000000E+03  0.80419002446E+02 0. -1.
</event>
<event>
 4    1  0.1699921E-001  0.1250000E+03  0.7546771E-02  0.1126479E+00
        -11   -1    0    0    0    0  0.00000000000E+00  0.00000000000E+00  0.12500000000E+03  0.12500000000E+03  0.00000000000E+00 0.  1.
         11   -1    0    0    0    0 -0.00000000000E+00 -0.00000000000E+00 -0.12500000000E+03  0.12500000000E+03  0.00000000000E+00 0. -1.
         24    1    1    2    0    0 -0.11585883761E+02  0.17414034851E+02  0.93382561184E+02  0.12500000000E+03  0.80419002446E+02 0.  1.
        -24    1    1    2    0    0  0.11585883761E+02 -0.17414034851E+02 -0.93382561184E+02  0.12500000000E+03  0.80419002446E+02 0. -1.
</event>
<event>
 4    1  0.1699921E-001  0.1250000E+03  0.7546771E-02  0.1126479E+00
        -11   -1    0    0    0    0  0.00000000000E+00  0.00000000000E+00  0.12500000000E+03  0.12500000000E+03  0.00000000000E+00 0.  1.
         11   -1    0    0    0    0 -0.00000000000E+00 -0.00000000000E+00 -0.12500000000E+03  0.12500000000E+03  0.00000000000E+00 0. -1.
         24    1    1    2    0    0  0.25197474305E+02 -0.45042368178E+02  0.80585708430E+02  0.12500000000E+03  0.80419002446E+02 0.  1.
        -24    1    1    2    0    0 -0.25197474305E+02  0.45042368178E+02 -0.80585708430E+02  0.12500000000E+03  0.80419002446E+02 0. -1.
</event>
<event>
 4    1  0.1699921E-001  0.1250000E+03  0.7546771E-02  0.1126479E+00
        -11   -1    0    0    0    0  0.00000000000E+00  0.00000000000E+00  0.12500000000E+03  0.12500000000E+03  0.00000000000E+00 0.  1.
         11   -1    0    0    0    0 -0.00000000000E+00 -0.00000000000E+00 -0.12500000000E+03  0.12500000000E+03  0.00000000000E+00 0. -1.
         24    1    1    2    0    0  0.20773444631E+02  0.11993281240E+01  0.93406689567E+02  0.12500000000E+03  0.80419002446E+02 0.  1.
        -24    1    1    2    0    0 -0.20773444631E+02 -0.11993281240E+01 -0.93406689567E+02  0.12500000000E+03  0.80419002446E+02 0. -1.
</event>
<event>
 4    1  0.1699921E-001  0.1250000E+03  0.7546771E-02  0.1126479E+00
        -11   -1    0    0    0    0  0.00000000000E+00  0.00000000000E+00  0.12500000000E+03  0.12500000000E+03  0.00000000000E+00 0.  1.
         11   -1    0    0    0    0 -0.00000000000E+00 -0.00000000000E+00 -0.12500000000E+03  0.12500000000E+03  0.00000000000E+00 0. -1.
         24    1    1    2    0    0 -0.28228033148E+02  0.32951330847E+02  0.85294618738E+02  0.12500000000E+03  0.80419002446E+02 0.  1.
        -24    1    1    2    0    0  0.28228033148E+02 -0.32951330847E+02 -0.85294618738E+02  0.12500000000E+03  0.80419002446E+02 0. -1.
</event>
<event>
 4    1  0.1699921E-001  0.1250000E+03  0.7546771E-02  0.1126479E+00
        -11   -1    0    0    0    0  0.00000000000E+00  0.00000000000E+00  0.12500000000E+03  0.12500000000E+03  0.00000000000E+00 0.  1.
         11   -1    0    0    0    0 -0.00000000000E+00 -0.00000000000E+00 -0.12500000000E+03  0.12500000000E+03  0.00000000000E+00 0. -1.
         24    1    1    2    0    0  0.28103128595E+02 -0.17949583166E+02  0.89698442980E+02  0.12500000000E+03  0.80419002446E+02 0.  1.
        -24    1    1    2    0    0 -0.28103128595E+02  0.17949583166E+02 -0.89698442980E+02  0.12500000000E+03  0.80419002446E+02 0. -1.
</event>
<event>
 4    1  0.1699921E-001  0.1250000E+03  0.7546771E-02  0.1126479E+00
        -11   -1    0    0    0    0  0.00000000000E+00  0.00000000000E+00  0.12500000000E+03  0.12500000000E+03  0.00000000000E+00 0.  1.
         11   -1    0    0    0    0 -0.00000000000E+00 -0.00000000000E+00 -0.12500000000E+03  0.12500000000E+03  0.00000000000E+00 0. -1.
         24    1    1    2    0    0 -0.46656600319E+02 -0.44492762725E+02  0.70720151000E+02  0.12500000000E+03  0.80419002446E+02 0.  1.
        -24    1    1    2    0    0  0.46656600319E+02  0.44492762725E+02 -0.70720151000E+02  0.12500000000E+03  0.80419002446E+02 0. -1.
</event>
<event>
 4    1  0.1699921E-001  0.1250000E+03  0.7546771E-02  0.1126479E+00
        -11   -1    0    0    0    0  0.00000000000E+00  0.00000000000E+00  0.12500000000E+03  0.12500000000E+03  0.00000000000E+00 0.  1.
         11   -1    0    0    0    0 -0.00000000000E+00 -0.00000000000E+00 -0.12500000000E+03  0.12500000000E+03  0.00000000000E+00 0. -1.
         24    1    1    2    0    0  0.68312738587E+01 -0.11167369392E+02  0.94796664519E+02  0.12500000000E+03  0.80419002446E+02 0.  0.
        -24    1    1    2    0    0 -0.68312738587E+01  0.11167369392E+02 -0.94796664519E+02  0.12500000000E+03  0.80419002446E+02 0. -1.
</event>
<event>
 4    1  0.1699921E-001  0.1250000E+03  0.7546771E-02  0.1126479E+00
        -11   -1    0    0    0    0  0.00000000000E+00  0.00000000000E+00  0.12500000000E+03  0.12500000000E+03  0.00000000000E+00 0.  1.
         11   -1    0    0    0    0 -0.00000000000E+00 -0.00000000000E+00 -0.12500000000E+03  0.12500000000E+03  0.00000000000E+00 0. -1.
         24    1    1    2    0    0  0.28884317351E+02 -0.38398064297E+01  0.91152268997E+02  0.12500000000E+03  0.80419002446E+02 0.  1.
        -24    1    1    2    0    0 -0.28884317351E+02  0.38398064297E+01 -0.91152268997E+02  0.12500000000E+03  0.80419002446E+02 0. -1.
</event>
<event>
 4    1  0.1699921E-001  0.1250000E+03  0.7546771E-02  0.1126479E+00
        -11   -1    0    0    0    0  0.00000000000E+00  0.00000000000E+00  0.12500000000E+03  0.12500000000E+03  0.00000000000E+00 0.  1.
         11   -1    0    0    0    0 -0.00000000000E+00 -0.00000000000E+00 -0.12500000000E+03  0.12500000000E+03  0.00000000000E+00 0. -1.
         24    1    1    2    0    0 -0.51157624298E+02  0.15639128195E+02  0.79347962741E+02  0.12500000000E+03  0.80419002446E+02 0.  1.
        -24    1    1    2    0    0  0.51157624298E+02 -0.15639128195E+02 -0.79347962741E+02  0.12500000000E+03  0.80419002446E+02 0. -1.
</event>
<event>
 4    1  0.1699921E-001  0.1250000E+03  0.7546771E-02  0.1126479E+00
        -11   -1    0    0    0    0  0.00000000000E+00  0.00000000000E+00  0.12500000000E+03  0.12500000000E+03  0.00000000000E+00 0.  1.
         11   -1    0    0    0    0 -0.00000000000E+00 -0.00000000000E+00 -0.12500000000E+03  0.12500000000E+03  0.00000000000E+00 0. -1.
         24    1    1    2    0    0 -0.24692994590E+02  0.91236779326E+02  0.14962959669E+02  0.12500000000E+03  0.80419002446E+02 0. -1.
        -24    1    1    2    0    0  0.24692994590E+02 -0.91236779326E+02 -0.14962959669E+02  0.12500000000E+03  0.80419002446E+02 0.  0.
</event>
<event>
 4    1  0.1699921E-001  0.1250000E+03  0.7546771E-02  0.1126479E+00
        -11   -1    0    0    0    0  0.00000000000E+00  0.00000000000E+00  0.12500000000E+03  0.12500000000E+03  0.00000000000E+00 0.  1.
         11   -1    0    0    0    0 -0.00000000000E+00 -0.00000000000E+00 -0.12500000000E+03  0.12500000000E+03  0.00000000000E+00 0. -1.
         24    1    1    2    0    0  0.82950907462E+02 -0.26139393706E+02  0.39920710082E+02  0.12500000000E+03  0.80419002446E+02 0.  1.
        -24    1    1    2    0    0 -0.82950907462E+02  0.26139393706E+02 -0.39920710082E+02  0.12500000000E+03  0.80419002446E+02 0. -1.
</event>
<event>
 4    1  0.1699921E-001  0.1250000E+03  0.7546771E-02  0.1126479E+00
        -11   -1    0    0    0    0  0.00000000000E+00  0.00000000000E+00  0.12500000000E+03  0.12500000000E+03  0.00000000000E+00 0.  1.
         11   -1    0    0    0    0 -0.00000000000E+00 -0.00000000000E+00 -0.12500000000E+03  0.12500000000E+03  0.00000000000E+00 0. -1.
         24    1    1    2    0    0  0.25207971094E+02  0.27634448114E+02  0.88083366854E+02  0.12500000000E+03  0.80419002446E+02 0.  1.
        -24    1    1    2    0    0 -0.25207971094E+02 -0.27634448114E+02 -0.88083366854E+02  0.12500000000E+03  0.80419002446E+02 0. -1.
</event>
<event>
 4    1  0.1699921E-001  0.1250000E+03  0.7546771E-02  0.1126479E+00
        -11   -1    0    0    0    0  0.00000000000E+00  0.00000000000E+00  0.12500000000E+03  0.12500000000E+03  0.00000000000E+00 0.  1.
         11   -1    0    0    0    0 -0.00000000000E+00 -0.00000000000E+00 -0.12500000000E+03  0.12500000000E+03  0.00000000000E+00 0. -1.
         24    1    1    2    0    0 -0.51644930728E+02  0.23312253679E+02  0.77117598537E+02  0.12500000000E+03  0.80419002446E+02 0.  1.
        -24    1    1    2    0    0  0.51644930728E+02 -0.23312253679E+02 -0.77117598537E+02  0.12500000000E+03  0.80419002446E+02 0. -1.
</event>
<event>
 4    1  0.1699921E-001  0.1250000E+03  0.7546771E-02  0.1126479E+00
        -11   -1    0    0    0    0  0.00000000000E+00  0.00000000000E+00  0.12500000000E+03  0.12500000000E+03  0.00000000000E+00 0.  1.
         11   -1    0    0    0    0 -0.00000000000E+00 -0.00000000000E+00 -0.12500000000E+03  0.12500000000E+03  0.00000000000E+00 0. -1.
         24    1    1    2    0    0 -0.26914496135E+02  0.15914972161E+02  0.90443947307E+02  0.12500000000E+03  0.80419002446E+02 0.  0.
        -24    1    1    2    0    0  0.26914496135E+02 -0.15914972161E+02 -0.90443947307E+02  0.12500000000E+03  0.80419002446E+02 0. -1.
</event>
<event>
 4    1  0.1699921E-001  0.1250000E+03  0.7546771E-02  0.1126479E+00
        -11   -1    0    0    0    0  0.00000000000E+00  0.00000000000E+00  0.12500000000E+03  0.12500000000E+03  0.00000000000E+00 0.  1.
         11   -1    0    0    0    0 -0.00000000000E+00 -0.00000000000E+00 -0.12500000000E+03  0.12500000000E+03  0.00000000000E+00 0. -1.
         24    1    1    2    0    0  0.66034237333E+02  0.20775085221E+02  0.66073136595E+02  0.12500000000E+03  0.80419002446E+02 0.  1.
        -24    1    1    2    0    0 -0.66034237333E+02 -0.20775085221E+02 -0.66073136595E+02  0.12500000000E+03  0.80419002446E+02 0. -1.
</event>
<event>
 4    1  0.1699921E-001  0.1250000E+03  0.7546771E-02  0.1126479E+00
        -11   -1    0    0    0    0  0.00000000000E+00  0.00000000000E+00  0.12500000000E+03  0.12500000000E+03  0.00000000000E+00 0.  1.
         11   -1    0    0    0    0 -0.00000000000E+00 -0.00000000000E+00 -0.12500000000E+03  0.12500000000E+03  0.00000000000E+00 0. -1.
         24    1    1    2    0    0 -0.68639401326E+02 -0.18002356032E+02  0.64205387691E+02  0.12500000000E+03  0.80419002446E+02 0.  1.
        -24    1    1    2    0    0  0.68639401326E+02  0.18002356032E+02 -0.64205387691E+02  0.12500000000E+03  0.80419002446E+02 0. -1.
</event>
<event>
 4    1  0.1699921E-001  0.1250000E+03  0.7546771E-02  0.1126479E+00
        -11   -1    0    0    0    0  0.00000000000E+00  0.00000000000E+00  0.12500000000E+03  0.12500000000E+03  0.00000000000E+00 0.  1.
         11   -1    0    0    0    0 -0.00000000000E+00 -0.00000000000E+00 -0.12500000000E+03  0.12500000000E+03  0.00000000000E+00 0. -1.
         24    1    1    2    0    0  0.40100624537E+00  0.95430223307E+02 -0.71200926334E+01  0.12500000000E+03  0.80419002446E+02 0.  0.
        -24    1    1    2    0    0 -0.40100624537E+00 -0.95430223307E+02  0.71200926334E+01  0.12500000000E+03  0.80419002446E+02 0. -1.
</event>
<event>
 4    1  0.1699921E-001  0.1250000E+03  0.7546771E-02  0.1126479E+00
        -11   -1    0    0    0    0  0.00000000000E+00  0.00000000000E+00  0.12500000000E+03  0.12500000000E+03  0.00000000000E+00 0.  1.
         11   -1    0    0    0    0 -0.00000000000E+00 -0.00000000000E+00 -0.12500000000E+03  0.12500000000E+03  0.00000000000E+00 0. -1.
         24    1    1    2    0    0 -0.40192145176E+02  0.44449545146E+02  0.74609740974E+02  0.12500000000E+03  0.80419002446E+02 0.  1.
        -24    1    1    2    0    0  0.40192145176E+02 -0.44449545146E+02 -0.74609740974E+02  0.12500000000E+03  0.80419002446E+02 0. -1.
</event>
<event>
 4    1  0.1699921E-001  0.1250000E+03  0.7546771E-02  0.1126479E+00
        -11   -1    0    0    0    0  0.00000000000E+00  0.00000000000E+00  0.12500000000E+03  0.12500000000E+03  0.00000000000E+00 0.  1.
         11   -1    0    0    0    0 -0.00000000000E+00 -0.00000000000E+00 -0.12500000000E+03  0.12500000000E+03  0.00000000000E+00 0. -1.
         24    1    1    2    0    0  0.47558955249E+02 -0.82505149735E+02  0.94249715322E+01  0.12500000000E+03  0.80419002446E+02 0.  1.
        -24    1    1    2    0    0 -0.47558955249E+02  0.82505149735E+02 -0.94249715322E+01  0.12500000000E+03  0.80419002446E+02 0.  0.
</event>
<event>
 4    1  0.1699921E-001  0.1250000E+03  0.7546771E-02  0.1126479E+00
        -11   -1    0    0    0    0  0.00000000000E+00  0.00000000000E+00  0.12500000000E+03  0.12500000000E+03  0.00000000000E+00 0.  1.
         11   -1    0    0    0    0 -0.00000000000E+00 -0.00000000000E+00 -0.12500000000E+03  0.12500000000E+03  0.00000000000E+00 0. -1.
         24    1    1    2    0    0 -0.47739830427E+02 -0.48580946121E+02  0.67220415876E+02  0.12500000000E+03  0.80419002446E+02 0.  1.
        -24    1    1    2    0    0  0.47739830427E+02  0.48580946121E+02 -0.67220415876E+02  0.12500000000E+03  0.80419002446E+02 0. -1.
</event>
<event>
 4    1  0.1699921E-001  0.1250000E+03  0.7546771E-02  0.1126479E+00
        -11   -1    0    0    0    0  0.00000000000E+00  0.00000000000E+00  0.12500000000E+03  0.12500000000E+03  0.00000000000E+00 0.  1.
         11   -1    0    0    0    0 -0.00000000000E+00 -0.00000000000E+00 -0.12500000000E+03  0.12500000000E+03  0.00000000000E+00 0. -1.
         24    1    1    2    0    0 -0.99522526813E+01 -0.41563538432E+02  0.85622479439E+02  0.12500000000E+03  0.80419002446E+02 0.  1.
        -24    1    1    2    0    0  0.99522526813E+01  0.41563538432E+02 -0.85622479439E+02  0.12500000000E+03  0.80419002446E+02 0. -1.
</event>
<event>
 4    1  0.1699921E-001  0.1250000E+03  0.7546771E-02  0.1126479E+00
        -11   -1    0    0    0    0  0.00000000000E+00  0.00000000000E+00  0.12500000000E+03  0.12500000000E+03  0.00000000000E+00 0.  1.
         11   -1    0    0    0    0 -0.00000000000E+00 -0.00000000000E+00 -0.12500000000E+03  0.12500000000E+03  0.00000000000E+00 0. -1.
         24    1    1    2    0    0 -0.27835255090E+02 -0.53011548637E+02  0.74650909779E+02  0.12500000000E+03  0.80419002446E+02 0.  1.
        -24    1    1    2    0    0  0.27835255090E+02  0.53011548637E+02 -0.74650909779E+02  0.12500000000E+03  0.80419002446E+02 0. -1.
</event>
<event>
 4    1  0.1699921E-001  0.1250000E+03  0.7546771E-02  0.1126479E+00
        -11   -1    0    0    0    0  0.00000000000E+00  0.00000000000E+00  0.12500000000E+03  0.12500000000E+03  0.00000000000E+00 0.  1.
         11   -1    0    0    0    0 -0.00000000000E+00 -0.00000000000E+00 -0.12500000000E+03  0.12500000000E+03  0.00000000000E+00 0. -1.
         24    1    1    2    0    0  0.72107701927E+01 -0.16894383368E+02  0.93916817714E+02  0.12500000000E+03  0.80419002446E+02 0.  0.
        -24    1    1    2    0    0 -0.72107701927E+01  0.16894383368E+02 -0.93916817714E+02  0.12500000000E+03  0.80419002446E+02 0.  0.
</event>
<event>
 4    1  0.1699921E-001  0.1250000E+03  0.7546771E-02  0.1126479E+00
        -11   -1    0    0    0    0  0.00000000000E+00  0.00000000000E+00  0.12500000000E+03  0.12500000000E+03  0.00000000000E+00 0.  1.
         11   -1    0    0    0    0 -0.00000000000E+00 -0.00000000000E+00 -0.12500000000E+03  0.12500000000E+03  0.00000000000E+00 0. -1.
         24    1    1    2    0    0 -0.11014923682E+02  0.18884876035E+02  0.93165535253E+02  0.12500000000E+03  0.80419002446E+02 0.  1.
        -24    1    1    2    0    0  0.11014923682E+02 -0.18884876035E+02 -0.93165535253E+02  0.12500000000E+03  0.80419002446E+02 0. -1.
</event>
<event>
 4    1  0.1699921E-001  0.1250000E+03  0.7546771E-02  0.1126479E+00
        -11   -1    0    0    0    0  0.00000000000E+00  0.00000000000E+00  0.12500000000E+03  0.12500000000E+03  0.00000000000E+00 0.  1.
         11   -1    0    0    0    0 -0.00000000000E+00 -0.00000000000E+00 -0.12500000000E+03  0.12500000000E+03  0.00000000000E+00 0. -1.
         24    1    1    2    0    0 -0.12643606908E+02 -0.19595574957E+02  0.92811296145E+02  0.12500000000E+03  0.80419002446E+02 0.  1.
        -24    1    1    2    0    0  0.12643606908E+02  0.19595574957E+02 -0.92811296145E+02  0.12500000000E+03  0.80419002446E+02 0. -1.
</event>
<event>
 4    1  0.1699921E-001  0.1250000E+03  0.7546771E-02  0.1126479E+00
        -11   -1    0    0    0    0  0.00000000000E+00  0.00000000000E+00  0.12500000000E+03  0.12500000000E+03  0.00000000000E+00 0.  1.
         11   -1    0    0    0    0 -0.00000000000E+00 -0.00000000000E+00 -0.12500000000E+03  0.12500000000E+03  0.00000000000E+00 0. -1.
         24    1    1    2    0    0 -0.26061133814E+02  0.54755079481E+02  0.74030281784E+02  0.12500000000E+03  0.80419002446E+02 0.  1.
        -24    1    1    2    0    0  0.26061133814E+02 -0.54755079481E+02 -0.74030281784E+02  0.12500000000E+03  0.80419002446E+02 0. -1.
</event>
<event>
 4    1  0.1699921E-001  0.1250000E+03  0.7546771E-02  0.1126479E+00
        -11   -1    0    0    0    0  0.00000000000E+00  0.00000000000E+00  0.12500000000E+03  0.12500000000E+03  0.00000000000E+00 0.  1.
         11   -1    0    0    0    0 -0.00000000000E+00 -0.00000000000E+00 -0.12500000000E+03  0.12500000000E+03  0.00000000000E+00 0. -1.
         24    1    1    2    0    0  0.23216974355E+02  0.43572981916E+02  0.81976529534E+02  0.12500000000E+03  0.80419002446E+02 0.  1.
        -24    1    1    2    0    0 -0.23216974355E+02 -0.43572981916E+02 -0.81976529534E+02  0.12500000000E+03  0.80419002446E+02 0. -1.
</event>
<event>
 4    1  0.1699921E-001  0.1250000E+03  0.7546771E-02  0.1126479E+00
        -11   -1    0    0    0    0  0.00000000000E+00  0.00000000000E+00  0.12500000000E+03  0.12500000000E+03  0.00000000000E+00 0.  1.
         11   -1    0    0    0    0 -0.00000000000E+00 -0.00000000000E+00 -0.12500000000E+03  0.12500000000E+03  0.00000000000E+00 0. -1.
         24    1    1    2    0    0 -0.51339642142E+02  0.24747997928E+02  0.76873674226E+02  0.12500000000E+03  0.80419002446E+02 0.  1.
        -24    1    1    2    0    0  0.51339642142E+02 -0.24747997928E+02 -0.76873674226E+02  0.12500000000E+03  0.80419002446E+02 0. -1.
</event>
<event>
 4    1  0.1699921E-001  0.1250000E+03  0.7546771E-02  0.1126479E+00
        -11   -1    0    0    0    0  0.00000000000E+00  0.00000000000E+00  0.12500000000E+03  0.12500000000E+03  0.00000000000E+00 0.  1.
         11   -1    0    0    0    0 -0.00000000000E+00 -0.00000000000E+00 -0.12500000000E+03  0.12500000000E+03  0.00000000000E+00 0. -1.
         24    1    1    2    0    0  0.55378215605E+02 -0.41611109547E+02  0.66026910002E+02  0.12500000000E+03  0.80419002446E+02 0.  1.
        -24    1    1    2    0    0 -0.55378215605E+02  0.41611109547E+02 -0.66026910002E+02  0.12500000000E+03  0.80419002446E+02 0. -1.
</event>
<event>
 4    1  0.1699921E-001  0.1250000E+03  0.7546771E-02  0.1126479E+00
        -11   -1    0    0    0    0  0.00000000000E+00  0.00000000000E+00  0.12500000000E+03  0.12500000000E+03  0.00000000000E+00 0.  1.
         11   -1    0    0    0    0 -0.00000000000E+00 -0.00000000000E+00 -0.12500000000E+03  0.12500000000E+03  0.00000000000E+00 0. -1.
         24    1    1    2    0    0  0.30833587920E+02  0.13875055951E+02  0.89524056677E+02  0.12500000000E+03  0.80419002446E+02 0.  0.
        -24    1    1    2    0    0 -0.30833587920E+02 -0.13875055951E+02 -0.89524056677E+02  0.12500000000E+03  0.80419002446E+02 0.  0.
</event>
<event>
 4    1  0.1699921E-001  0.1250000E+03  0.7546771E-02  0.1126479E+00
        -11   -1    0    0    0    0  0.00000000000E+00  0.00000000000E+00  0.12500000000E+03  0.12500000000E+03  0.00000000000E+00 0.  1.
         11   -1    0    0    0    0 -0.00000000000E+00 -0.00000000000E+00 -0.12500000000E+03  0.12500000000E+03  0.00000000000E+00 0. -1.
         24    1    1    2    0    0 -0.19290479543E+02  0.84311581356E+01  0.93351898841E+02  0.12500000000E+03  0.80419002446E+02 0.  1.
        -24    1    1    2    0    0  0.19290479543E+02 -0.84311581356E+01 -0.93351898841E+02  0.12500000000E+03  0.80419002446E+02 0. -1.
</event>
<event>
 4    1  0.1699921E-001  0.1250000E+03  0.7546771E-02  0.1126479E+00
        -11   -1    0    0    0    0  0.00000000000E+00  0.00000000000E+00  0.12500000000E+03  0.12500000000E+03  0.00000000000E+00 0.  1.
         11   -1    0    0    0    0 -0.00000000000E+00 -0.00000000000E+00 -0.12500000000E+03  0.12500000000E+03  0.00000000000E+00 0. -1.
         24    1    1    2    0    0 -0.54129833757E+02 -0.63147935021E+02  0.47329519812E+02  0.12500000000E+03  0.80419002446E+02 0.  1.
        -24    1    1    2    0    0  0.54129833757E+02  0.63147935021E+02 -0.47329519812E+02  0.12500000000E+03  0.80419002446E+02 0. -1.
</event>
<event>
 4    1  0.1699921E-001  0.1250000E+03  0.7546771E-02  0.1126479E+00
        -11   -1    0    0    0    0  0.00000000000E+00  0.00000000000E+00  0.12500000000E+03  0.12500000000E+03  0.00000000000E+00 0.  1.
         11   -1    0    0    0    0 -0.00000000000E+00 -0.00000000000E+00 -0.12500000000E+03  0.12500000000E+03  0.00000000000E+00 0. -1.
         24    1    1    2    0    0 -0.44717884329E+01 -0.87312475215E+02  0.38914249649E+02  0.12500000000E+03  0.80419002446E+02 0.  1.
        -24    1    1    2    0    0  0.44717884329E+01  0.87312475215E+02 -0.38914249649E+02  0.12500000000E+03  0.80419002446E+02 0.  0.
</event>
<event>
 4    1  0.1699921E-001  0.1250000E+03  0.7546771E-02  0.1126479E+00
        -11   -1    0    0    0    0  0.00000000000E+00  0.00000000000E+00  0.12500000000E+03  0.12500000000E+03  0.00000000000E+00 0.  1.
         11   -1    0    0    0    0 -0.00000000000E+00 -0.00000000000E+00 -0.12500000000E+03  0.12500000000E+03  0.00000000000E+00 0. -1.
         24    1    1    2    0    0  0.76506793130E+01  0.91017125346E+02 -0.28550552456E+02  0.12500000000E+03  0.80419002446E+02 0. -1.
        -24    1    1    2    0    0 -0.76506793130E+01 -0.91017125346E+02  0.28550552456E+02  0.12500000000E+03  0.80419002446E+02 0.  1.
</event>
<event>
 4    1  0.1699921E-001  0.1250000E+03  0.7546771E-02  0.1126479E+00
        -11   -1    0    0    0    0  0.00000000000E+00  0.00000000000E+00  0.12500000000E+03  0.12500000000E+03  0.00000000000E+00 0.  1.
         11   -1    0    0    0    0 -0.00000000000E+00 -0.00000000000E+00 -0.12500000000E+03  0.12500000000E+03  0.00000000000E+00 0. -1.
         24    1    1    2    0    0 -0.25411648122E+02 -0.29442079945E+02  0.87436812121E+02  0.12500000000E+03  0.80419002446E+02 0.  1.
        -24    1    1    2    0    0  0.25411648122E+02  0.29442079945E+02 -0.87436812121E+02  0.12500000000E+03  0.80419002446E+02 0. -1.
</event>
<event>
 4    1  0.1699921E-001  0.1250000E+03  0.7546771E-02  0.1126479E+00
        -11   -1    0    0    0    0  0.00000000000E+00  0.00000000000E+00  0.12500000000E+03  0.12500000000E+03  0.00000000000E+00 0.  1.
         11   -1    0    0    0    0 -0.00000000000E+00 -0.00000000000E+00 -0.12500000000E+03  0.12500000000E+03  0.00000000000E+00 0. -1.
         24    1    1    2    0    0 -0.67014680898E+02  0.40650750098E+02  0.54902942600E+02  0.12500000000E+03  0.80419002446E+02 0.  1.
        -24    1    1    2    0    0  0.67014680898E+02 -0.40650750098E+02 -0.54902942600E+02  0.12500000000E+03  0.80419002446E+02 0. -1.
</event>
<event>
 4    1  0.1699921E-001  0.1250000E+03  0.7546771E-02  0.1126479E+00
        -11   -1    0    0    0    0  0.00000000000E+00  0.00000000000E+00  0.12500000000E+03  0.12500000000E+03  0.00000000000E+00 0.  1.
         11   -1    0    0    0    0 -0.00000000000E+00 -0.00000000000E+00 -0.12500000000E+03  0.12500000000E+03  0.00000000000E+00 0. -1.
         24    1    1    2    0    0  0.54011939815E+02 -0.53860322382E+02  0.57788926933E+02  0.12500000000E+03  0.80419002446E+02 0.  1.
        -24    1    1    2    0    0 -0.54011939815E+02  0.53860322382E+02 -0.57788926933E+02  0.12500000000E+03  0.80419002446E+02 0. -1.
</event>
<event>
 4    1  0.1699921E-001  0.1250000E+03  0.7546771E-02  0.1126479E+00
        -11   -1    0    0    0    0  0.00000000000E+00  0.00000000000E+00  0.12500000000E+03  0.12500000000E+03  0.00000000000E+00 0.  1.
         11   -1    0    0    0    0 -0.00000000000E+00 -0.00000000000E+00 -0.12500000000E+03  0.12500000000E+03  0.00000000000E+00 0. -1.
         24    1    1    2    0    0 -0.24657011751E+02 -0.73298951239E+02  0.56365588477E+02  0.12500000000E+03  0.80419002446E+02 0.  1.
        -24    1    1    2    0    0  0.24657011751E+02  0.73298951239E+02 -0.56365588477E+02  0.12500000000E+03  0.80419002446E+02 0. -1.
</event>
<event>
 4    1  0.1699921E-001  0.1250000E+03  0.7546771E-02  0.1126479E+00
        -11   -1    0    0    0    0  0.00000000000E+00  0.00000000000E+00  0.12500000000E+03  0.12500000000E+03  0.00000000000E+00 0.  1.
         11   -1    0    0    0    0 -0.00000000000E+00 -0.00000000000E+00 -0.12500000000E+03  0.12500000000E+03  0.00000000000E+00 0. -1.
         24    1    1    2    0    0  0.73559952718E+01 -0.18483928356E+00  0.95412992897E+02  0.12500000000E+03  0.80419002446E+02 0.  1.
        -24    1    1    2    0    0 -0.73559952718E+01  0.18483928356E+00 -0.95412992897E+02  0.12500000000E+03  0.80419002446E+02 0.  0.
</event>
<event>
 4    1  0.1699921E-001  0.1250000E+03  0.7546771E-02  0.1126479E+00
        -11   -1    0    0    0    0  0.00000000000E+00  0.00000000000E+00  0.12500000000E+03  0.12500000000E+03  0.00000000000E+00 0.  1.
         11   -1    0    0    0    0 -0.00000000000E+00 -0.00000000000E+00 -0.12500000000E+03  0.12500000000E+03  0.00000000000E+00 0. -1.
         24    1    1    2    0    0  0.43435987616E+02 -0.23050728437E+02  0.82096059247E+02  0.12500000000E+03  0.80419002446E+02 0.  1.
        -24    1    1    2    0    0 -0.43435987616E+02  0.23050728437E+02 -0.82096059247E+02  0.12500000000E+03  0.80419002446E+02 0. -1.
</event>
<event>
 4    1  0.1699921E-001  0.1250000E+03  0.7546771E-02  0.1126479E+00
        -11   -1    0    0    0    0  0.00000000000E+00  0.00000000000E+00  0.12500000000E+03  0.12500000000E+03  0.00000000000E+00 0.  1.
         11   -1    0    0    0    0 -0.00000000000E+00 -0.00000000000E+00 -0.12500000000E+03  0.12500000000E+03  0.00000000000E+00 0. -1.
         24    1    1    2    0    0  0.20729265278E+02 -0.60536800384E+01  0.93227863671E+02  0.12500000000E+03  0.80419002446E+02 0.  1.
        -24    1    1    2    0    0 -0.20729265278E+02  0.60536800384E+01 -0.93227863671E+02  0.12500000000E+03  0.80419002446E+02 0. -1.
</event>
<event>
 4    1  0.1699921E-001  0.1250000E+03  0.7546771E-02  0.1126479E+00
        -11   -1    0    0    0    0  0.00000000000E+00  0.00000000000E+00  0.12500000000E+03  0.12500000000E+03  0.00000000000E+00 0.  1.
         11   -1    0    0    0    0 -0.00000000000E+00 -0.00000000000E+00 -0.12500000000E+03  0.12500000000E+03  0.00000000000E+00 0. -1.
         24    1    1    2    0    0 -0.58055955776E+02 -0.38827243207E+02  0.65419685336E+02  0.12500000000E+03  0.80419002446E+02 0.  1.
        -24    1    1    2    0    0  0.58055955776E+02  0.38827243207E+02 -0.65419685336E+02  0.12500000000E+03  0.80419002446E+02 0. -1.
</event>
<event>
 4    1  0.1699921E-001  0.1250000E+03  0.7546771E-02  0.1126479E+00
        -11   -1    0    0    0    0  0.00000000000E+00  0.00000000000E+00  0.12500000000E+03  0.12500000000E+03  0.00000000000E+00 0.  1.
         11   -1    0    0    0    0 -0.00000000000E+00 -0.00000000000E+00 -0.12500000000E+03  0.12500000000E+03  0.00000000000E+00 0. -1.
         24    1    1    2    0    0  0.64354992277E+02  0.61332067205E+02 -0.35420284400E+02  0.12500000000E+03  0.80419002446E+02 0.  0.
        -24    1    1    2    0    0 -0.64354992277E+02 -0.61332067205E+02  0.35420284400E+02  0.12500000000E+03  0.80419002446E+02 0.  0.
</event>
<event>
 4    1  0.1699921E-001  0.1250000E+03  0.7546771E-02  0.1126479E+00
        -11   -1    0    0    0    0  0.00000000000E+00  0.00000000000E+00  0.12500000000E+03  0.12500000000E+03  0.00000000000E+00 0.  1.
         11   -1    0    0    0    0 -0.00000000000E+00 -0.00000000000E+00 -0.12500000000E+03  0.12500000000E+03  0.00000000000E+00 0. -1.
         24    1    1    2    0    0 -0.33014140286E+02  0.72870201147E+02 -0.52514611030E+02  0.12500000000E+03  0.80419002446E+02 0. -1.
        -24    1    1    2    0    0  0.33014140286E+02 -0.72870201147E+02  0.52514611030E+02  0.12500000000E+03  0.80419002446E+02 0.  1.
</event>
<event>
 4    1  0.1699921E-001  0.1250000E+03  0.7546771E-02  0.1126479E+00
        -11   -1    0    0    0    0  0.00000000000E+00  0.00000000000E+00  0.12500000000E+03  0.12500000000E+03  0.00000000000E+00 0.  1.
         11   -1    0    0    0    0 -0.00000000000E+00 -0.00000000000E+00 -0.12500000000E+03  0.12500000000E+03  0.00000000000E+00 0. -1.
         24    1    1    2    0    0 -0.38583320327E+01  0.50065085485E+02  0.81464007604E+02  0.12500000000E+03  0.80419002446E+02 0.  1.
        -24    1    1    2    0    0  0.38583320327E+01 -0.50065085485E+02 -0.81464007604E+02  0.12500000000E+03  0.80419002446E+02 0. -1.
</event>
<event>
 4    1  0.1699921E-001  0.1250000E+03  0.7546771E-02  0.1126479E+00
        -11   -1    0    0    0    0  0.00000000000E+00  0.00000000000E+00  0.12500000000E+03  0.12500000000E+03  0.00000000000E+00 0.  1.
         11   -1    0    0    0    0 -0.00000000000E+00 -0.00000000000E+00 -0.12500000000E+03  0.12500000000E+03  0.00000000000E+00 0. -1.
         24    1    1    2    0    0  0.52765183346E+01 -0.40027030757E+02  0.86762775478E+02  0.12500000000E+03  0.80419002446E+02 0.  0.
        -24    1    1    2    0    0 -0.52765183346E+01  0.40027030757E+02 -0.86762775478E+02  0.12500000000E+03  0.80419002446E+02 0.  1.
</event>
<event>
 4    1  0.1699921E-001  0.1250000E+03  0.7546771E-02  0.1126479E+00
        -11   -1    0    0    0    0  0.00000000000E+00  0.00000000000E+00  0.12500000000E+03  0.12500000000E+03  0.00000000000E+00 0.  1.
         11   -1    0    0    0    0 -0.00000000000E+00 -0.00000000000E+00 -0.12500000000E+03  0.12500000000E+03  0.00000000000E+00 0. -1.
         24    1    1    2    0    0  0.22354280219E+02  0.64238424732E+02  0.67316379801E+02  0.12500000000E+03  0.80419002446E+02 0.  1.
        -24    1    1    2    0    0 -0.22354280219E+02 -0.64238424732E+02 -0.67316379801E+02  0.12500000000E+03  0.80419002446E+02 0. -1.
</event>
<event>
 4    1  0.1699921E-001  0.1250000E+03  0.7546771E-02  0.1126479E+00
        -11   -1    0    0    0    0  0.00000000000E+00  0.00000000000E+00  0.12500000000E+03  0.12500000000E+03  0.00000000000E+00 0.  1.
         11   -1    0    0    0    0 -0.00000000000E+00 -0.00000000000E+00 -0.12500000000E+03  0.12500000000E+03  0.00000000000E+00 0. -1.
         24    1    1    2    0    0 -0.20867373129E+02  0.70767904805E+02  0.60944568534E+02  0.12500000000E+03  0.80419002446E+02 0.  1.
        -24    1    1    2    0    0  0.20867373129E+02 -0.70767904805E+02 -0.60944568534E+02  0.12500000000E+03  0.80419002446E+02 0. -1.
</event>
<event>
 4    1  0.1699921E-001  0.1250000E+03  0.7546771E-02  0.1126479E+00
        -11   -1    0    0    0    0  0.00000000000E+00  0.00000000000E+00  0.12500000000E+03  0.12500000000E+03  0.00000000000E+00 0.  1.
         11   -1    0    0    0    0 -0.00000000000E+00 -0.00000000000E+00 -0.12500000000E+03  0.12500000000E+03  0.00000000000E+00 0. -1.
         24    1    1    2    0    0 -0.45564787120E+02  0.28225137769E+02  0.79277839390E+02  0.12500000000E+03  0.80419002446E+02 0.  1.
        -24    1    1    2    0    0  0.45564787120E+02 -0.28225137769E+02 -0.79277839390E+02  0.12500000000E+03  0.80419002446E+02 0.  1.
</event>
<event>
 4    1  0.1699921E-001  0.1250000E+03  0.7546771E-02  0.1126479E+00
        -11   -1    0    0    0    0  0.00000000000E+00  0.00000000000E+00  0.12500000000E+03  0.12500000000E+03  0.00000000000E+00 0.  1.
         11   -1    0    0    0    0 -0.00000000000E+00 -0.00000000000E+00 -0.12500000000E+03  0.12500000000E+03  0.00000000000E+00 0. -1.
         24    1    1    2    0    0 -0.33663717802E+02 -0.34929538439E+02  0.82489184102E+02  0.12500000000E+03  0.80419002446E+02 0.  1.
        -24    1    1    2    0    0  0.33663717802E+02  0.34929538439E+02 -0.82489184102E+02  0.12500000000E+03  0.80419002446E+02 0. -1.
</event>
<event>
 4    1  0.1699921E-001  0.1250000E+03  0.7546771E-02  0.1126479E+00
        -11   -1    0    0    0    0  0.00000000000E+00  0.00000000000E+00  0.12500000000E+03  0.12500000000E+03  0.00000000000E+00 0.  1.
         11   -1    0    0    0    0 -0.00000000000E+00 -0.00000000000E+00 -0.12500000000E+03  0.12500000000E+03  0.00000000000E+00 0. -1.
         24    1    1    2    0    0 -0.23010845460E+02  0.36133534284E+02  0.85572499887E+02  0.12500000000E+03  0.80419002446E+02 0.  1.
        -24    1    1    2    0    0  0.23010845460E+02 -0.36133534284E+02 -0.85572499887E+02  0.12500000000E+03  0.80419002446E+02 0. -1.
</event>
<event>
 4    1  0.1699921E-001  0.1250000E+03  0.7546771E-02  0.1126479E+00
        -11   -1    0    0    0    0  0.00000000000E+00  0.00000000000E+00  0.12500000000E+03  0.12500000000E+03  0.00000000000E+00 0.  1.
         11   -1    0    0    0    0 -0.00000000000E+00 -0.00000000000E+00 -0.12500000000E+03  0.12500000000E+03  0.00000000000E+00 0. -1.
         24    1    1    2    0    0  0.49448792915E+02  0.84918436644E+01  0.81489198769E+02  0.12500000000E+03  0.80419002446E+02 0.  1.
        -24    1    1    2    0    0 -0.49448792915E+02 -0.84918436644E+01 -0.81489198769E+02  0.12500000000E+03  0.80419002446E+02 0. -1.
</event>
<event>
 4    1  0.1699921E-001  0.1250000E+03  0.7546771E-02  0.1126479E+00
        -11   -1    0    0    0    0  0.00000000000E+00  0.00000000000E+00  0.12500000000E+03  0.12500000000E+03  0.00000000000E+00 0. -1.
         11   -1    0    0    0    0 -0.00000000000E+00 -0.00000000000E+00 -0.12500000000E+03  0.12500000000E+03  0.00000000000E+00 0.  1.
         24    1    1    2    0    0 -0.23998218850E+02 -0.39188763081E+02 -0.83941112608E+02  0.12500000000E+03  0.80419002446E+02 0.  0.
        -24    1    1    2    0    0  0.23998218850E+02  0.39188763081E+02  0.83941112608E+02  0.12500000000E+03  0.80419002446E+02 0.  0.
</event>
<event>
 4    1  0.1699921E-001  0.1250000E+03  0.7546771E-02  0.1126479E+00
        -11   -1    0    0    0    0  0.00000000000E+00  0.00000000000E+00  0.12500000000E+03  0.12500000000E+03  0.00000000000E+00 0.  1.
         11   -1    0    0    0    0 -0.00000000000E+00 -0.00000000000E+00 -0.12500000000E+03  0.12500000000E+03  0.00000000000E+00 0. -1.
         24    1    1    2    0    0 -0.22919868831E+02 -0.48630456109E+02  0.79167811622E+02  0.12500000000E+03  0.80419002446E+02 0.  1.
        -24    1    1    2    0    0  0.22919868831E+02  0.48630456109E+02 -0.79167811622E+02  0.12500000000E+03  0.80419002446E+02 0. -1.
</event>
<event>
 4    1  0.1699921E-001  0.1250000E+03  0.7546771E-02  0.1126479E+00
        -11   -1    0    0    0    0  0.00000000000E+00  0.00000000000E+00  0.12500000000E+03  0.12500000000E+03  0.00000000000E+00 0.  1.
         11   -1    0    0    0    0 -0.00000000000E+00 -0.00000000000E+00 -0.12500000000E+03  0.12500000000E+03  0.00000000000E+00 0. -1.
         24    1    1    2    0    0 -0.15305417646E+02  0.35089544964E+02  0.87705484837E+02  0.12500000000E+03  0.80419002446E+02 0.  1.
        -24    1    1    2    0    0  0.15305417646E+02 -0.35089544964E+02 -0.87705484837E+02  0.12500000000E+03  0.80419002446E+02 0. -1.
</event>
<event>
 4    1  0.1699921E-001  0.1250000E+03  0.7546771E-02  0.1126479E+00
        -11   -1    0    0    0    0  0.00000000000E+00  0.00000000000E+00  0.12500000000E+03  0.12500000000E+03  0.00000000000E+00 0.  1.
         11   -1    0    0    0    0 -0.00000000000E+00 -0.00000000000E+00 -0.12500000000E+03  0.12500000000E+03  0.00000000000E+00 0. -1.
         24    1    1    2    0    0  0.34216014681E+02 -0.88935969386E+02 -0.88000985474E+01  0.12500000000E+03  0.80419002446E+02 0.  1.
        -24    1    1    2    0    0 -0.34216014681E+02  0.88935969386E+02  0.88000985474E+01  0.12500000000E+03  0.80419002446E+02 0. -1.
</event>
<event>
 4    1  0.1699921E-001  0.1250000E+03  0.7546771E-02  0.1126479E+00
        -11   -1    0    0    0    0  0.00000000000E+00  0.00000000000E+00  0.12500000000E+03  0.12500000000E+03  0.00000000000E+00 0.  1.
         11   -1    0    0    0    0 -0.00000000000E+00 -0.00000000000E+00 -0.12500000000E+03  0.12500000000E+03  0.00000000000E+00 0. -1.
         24    1    1    2    0    0 -0.74138607847E+01  0.16622138075E+02  0.93949578177E+02  0.12500000000E+03  0.80419002446E+02 0.  1.
        -24    1    1    2    0    0  0.74138607847E+01 -0.16622138075E+02 -0.93949578177E+02  0.12500000000E+03  0.80419002446E+02 0. -1.
</event>
<event>
 4    1  0.1699921E-001  0.1250000E+03  0.7546771E-02  0.1126479E+00
        -11   -1    0    0    0    0  0.00000000000E+00  0.00000000000E+00  0.12500000000E+03  0.12500000000E+03  0.00000000000E+00 0.  1.
         11   -1    0    0    0    0 -0.00000000000E+00 -0.00000000000E+00 -0.12500000000E+03  0.12500000000E+03  0.00000000000E+00 0. -1.
         24    1    1    2    0    0 -0.87602808956E+02 -0.22998481305E+02  0.30896630339E+02  0.12500000000E+03  0.80419002446E+02 0.  1.
        -24    1    1    2    0    0  0.87602808956E+02  0.22998481305E+02 -0.30896630339E+02  0.12500000000E+03  0.80419002446E+02 0. -1.
</event>
<event>
 4    1  0.1699921E-001  0.1250000E+03  0.7546771E-02  0.1126479E+00
        -11   -1    0    0    0    0  0.00000000000E+00  0.00000000000E+00  0.12500000000E+03  0.12500000000E+03  0.00000000000E+00 0.  1.
         11   -1    0    0    0    0 -0.00000000000E+00 -0.00000000000E+00 -0.12500000000E+03  0.12500000000E+03  0.00000000000E+00 0. -1.
         24    1    1    2    0    0 -0.15937394144E+02  0.27309809474E+02  0.90321413961E+02  0.12500000000E+03  0.80419002446E+02 0.  1.
        -24    1    1    2    0    0  0.15937394144E+02 -0.27309809474E+02 -0.90321413961E+02  0.12500000000E+03  0.80419002446E+02 0. -1.
</event>
<event>
 4    1  0.1699921E-001  0.1250000E+03  0.7546771E-02  0.1126479E+00
        -11   -1    0    0    0    0  0.00000000000E+00  0.00000000000E+00  0.12500000000E+03  0.12500000000E+03  0.00000000000E+00 0.  1.
         11   -1    0    0    0    0 -0.00000000000E+00 -0.00000000000E+00 -0.12500000000E+03  0.12500000000E+03  0.00000000000E+00 0. -1.
         24    1    1    2    0    0  0.58086829422E+02 -0.24313038566E+02  0.72059561815E+02  0.12500000000E+03  0.80419002446E+02 0.  1.
        -24    1    1    2    0    0 -0.58086829422E+02  0.24313038566E+02 -0.72059561815E+02  0.12500000000E+03  0.80419002446E+02 0. -1.
</event>
<event>
 4    1  0.1699921E-001  0.1250000E+03  0.7546771E-02  0.1126479E+00
        -11   -1    0    0    0    0  0.00000000000E+00  0.00000000000E+00  0.12500000000E+03  0.12500000000E+03  0.00000000000E+00 0.  1.
         11   -1    0    0    0    0 -0.00000000000E+00 -0.00000000000E+00 -0.12500000000E+03  0.12500000000E+03  0.00000000000E+00 0. -1.
         24    1    1    2    0    0 -0.60193869189E+02  0.11408259258E+00 -0.74394012816E+02  0.12500000000E+03  0.80419002446E+02 0. -1.
        -24    1    1    2    0    0  0.60193869189E+02 -0.11408259258E+00  0.74394012816E+02  0.12500000000E+03  0.80419002446E+02 0.  0.
</event>
<event>
 4    1  0.1699921E-001  0.1250000E+03  0.7546771E-02  0.1126479E+00
        -11   -1    0    0    0    0  0.00000000000E+00  0.00000000000E+00  0.12500000000E+03  0.12500000000E+03  0.00000000000E+00 0.  1.
         11   -1    0    0    0    0 -0.00000000000E+00 -0.00000000000E+00 -0.12500000000E+03  0.12500000000E+03  0.00000000000E+00 0. -1.
         24    1    1    2    0    0  0.10918697296E+02 -0.34388930403E+02  0.88633896229E+02  0.12500000000E+03  0.80419002446E+02 0.  1.
        -24    1    1    2    0    0 -0.10918697296E+02  0.34388930403E+02 -0.88633896229E+02  0.12500000000E+03  0.80419002446E+02 0. -1.
</event>
<event>
 4    1  0.1699921E-001  0.1250000E+03  0.7546771E-02  0.1126479E+00
        -11   -1    0    0    0    0  0.00000000000E+00  0.00000000000E+00  0.12500000000E+03  0.12500000000E+03  0.00000000000E+00 0.  1.
         11   -1    0    0    0    0 -0.00000000000E+00 -0.00000000000E+00 -0.12500000000E+03  0.12500000000E+03  0.00000000000E+00 0. -1.
         24    1    1    2    0    0 -0.62491075283E+02 -0.30864958141E+02  0.65574415091E+02  0.12500000000E+03  0.80419002446E+02 0.  1.
        -24    1    1    2    0    0  0.62491075283E+02  0.30864958141E+02 -0.65574415091E+02  0.12500000000E+03  0.80419002446E+02 0. -1.
</event>
<event>
 4    1  0.1699921E-001  0.1250000E+03  0.7546771E-02  0.1126479E+00
        -11   -1    0    0    0    0  0.00000000000E+00  0.00000000000E+00  0.12500000000E+03  0.12500000000E+03  0.00000000000E+00 0.  1.
         11   -1    0    0    0    0 -0.00000000000E+00 -0.00000000000E+00 -0.12500000000E+03  0.12500000000E+03  0.00000000000E+00 0. -1.
         24    1    1    2    0    0  0.38034163135E+02 -0.26643764710E+02  0.83673749063E+02  0.12500000000E+03  0.80419002446E+02 0.  1.
        -24    1    1    2    0    0 -0.38034163135E+02  0.26643764710E+02 -0.83673749063E+02  0.12500000000E+03  0.80419002446E+02 0. -1.
</event>
<event>
 4    1  0.1699921E-001  0.1250000E+03  0.7546771E-02  0.1126479E+00
        -11   -1    0    0    0    0  0.00000000000E+00  0.00000000000E+00  0.12500000000E+03  0.12500000000E+03  0.00000000000E+00 0.  1.
         11   -1    0    0    0    0 -0.00000000000E+00 -0.00000000000E+00 -0.12500000000E+03  0.12500000000E+03  0.00000000000E+00 0. -1.
         24    1    1    2    0    0  0.34684734230E+02 -0.56552361033E+02  0.68967990536E+02  0.12500000000E+03  0.80419002446E+02 0.  1.
        -24    1    1    2    0    0 -0.34684734230E+02  0.56552361033E+02 -0.68967990536E+02  0.12500000000E+03  0.80419002446E+02 0. -1.
</event>
<event>
 4    1  0.1699921E-001  0.1250000E+03  0.7546771E-02  0.1126479E+00
        -11   -1    0    0    0    0  0.00000000000E+00  0.00000000000E+00  0.12500000000E+03  0.12500000000E+03  0.00000000000E+00 0.  1.
         11   -1    0    0    0    0 -0.00000000000E+00 -0.00000000000E+00 -0.12500000000E+03  0.12500000000E+03  0.00000000000E+00 0. -1.
         24    1    1    2    0    0  0.18847863826E+02  0.35622388208E+01  0.93754213396E+02  0.12500000000E+03  0.80419002446E+02 0.  1.
        -24    1    1    2    0    0 -0.18847863826E+02 -0.35622388208E+01 -0.93754213396E+02  0.12500000000E+03  0.80419002446E+02 0. -1.
</event>
<event>
 4    1  0.1699921E-001  0.1250000E+03  0.7546771E-02  0.1126479E+00
        -11   -1    0    0    0    0  0.00000000000E+00  0.00000000000E+00  0.12500000000E+03  0.12500000000E+03  0.00000000000E+00 0.  1.
         11   -1    0    0    0    0 -0.00000000000E+00 -0.00000000000E+00 -0.12500000000E+03  0.12500000000E+03  0.00000000000E+00 0. -1.
         24    1    1    2    0    0  0.35869317828E+02 -0.38274843612E+02  0.80038818274E+02  0.12500000000E+03  0.80419002446E+02 0.  1.
        -24    1    1    2    0    0 -0.35869317828E+02  0.38274843612E+02 -0.80038818274E+02  0.12500000000E+03  0.80419002446E+02 0. -1.
</event>
<event>
 4    1  0.1699921E-001  0.1250000E+03  0.7546771E-02  0.1126479E+00
        -11   -1    0    0    0    0  0.00000000000E+00  0.00000000000E+00  0.12500000000E+03  0.12500000000E+03  0.00000000000E+00 0.  1.
         11   -1    0    0    0    0 -0.00000000000E+00 -0.00000000000E+00 -0.12500000000E+03  0.12500000000E+03  0.00000000000E+00 0. -1.
         24    1    1    2    0    0  0.22396022899E+02 -0.60439852214E+02  0.70733489015E+02  0.12500000000E+03  0.80419002446E+02 0.  1.
        -24    1    1    2    0    0 -0.22396022899E+02  0.60439852214E+02 -0.70733489015E+02  0.12500000000E+03  0.80419002446E+02 0. -1.
</event>
<event>
 4    1  0.1699921E-001  0.1250000E+03  0.7546771E-02  0.1126479E+00
        -11   -1    0    0    0    0  0.00000000000E+00  0.00000000000E+00  0.12500000000E+03  0.12500000000E+03  0.00000000000E+00 0.  1.
         11   -1    0    0    0    0 -0.00000000000E+00 -0.00000000000E+00 -0.12500000000E+03  0.12500000000E+03  0.00000000000E+00 0. -1.
         24    1    1    2    0    0  0.35278321192E+02  0.76930316368E+01  0.88623029534E+02  0.12500000000E+03  0.80419002446E+02 0.  1.
        -24    1    1    2    0    0 -0.35278321192E+02 -0.76930316368E+01 -0.88623029534E+02  0.12500000000E+03  0.80419002446E+02 0. -1.
</event>
<event>
 4    1  0.1699921E-001  0.1250000E+03  0.7546771E-02  0.1126479E+00
        -11   -1    0    0    0    0  0.00000000000E+00  0.00000000000E+00  0.12500000000E+03  0.12500000000E+03  0.00000000000E+00 0.  1.
         11   -1    0    0    0    0 -0.00000000000E+00 -0.00000000000E+00 -0.12500000000E+03  0.12500000000E+03  0.00000000000E+00 0. -1.
         24    1    1    2    0    0  0.21581200178E+02  0.52828776117E+02  0.76818983712E+02  0.12500000000E+03  0.80419002446E+02 0.  1.
        -24    1    1    2    0    0 -0.21581200178E+02 -0.52828776117E+02 -0.76818983712E+02  0.12500000000E+03  0.80419002446E+02 0. -1.
</event>
<event>
 4    1  0.1699921E-001  0.1250000E+03  0.7546771E-02  0.1126479E+00
        -11   -1    0    0    0    0  0.00000000000E+00  0.00000000000E+00  0.12500000000E+03  0.12500000000E+03  0.00000000000E+00 0.  1.
         11   -1    0    0    0    0 -0.00000000000E+00 -0.00000000000E+00 -0.12500000000E+03  0.12500000000E+03  0.00000000000E+00 0. -1.
         24    1    1    2    0    0 -0.38914711714E+02 -0.27651332909E+02  0.82938730676E+02  0.12500000000E+03  0.80419002446E+02 0.  1.
        -24    1    1    2    0    0  0.38914711714E+02  0.27651332909E+02 -0.82938730676E+02  0.12500000000E+03  0.80419002446E+02 0. -1.
</event>
<event>
 4    1  0.1699921E-001  0.1250000E+03  0.7546771E-02  0.1126479E+00
        -11   -1    0    0    0    0  0.00000000000E+00  0.00000000000E+00  0.12500000000E+03  0.12500000000E+03  0.00000000000E+00 0.  1.
         11   -1    0    0    0    0 -0.00000000000E+00 -0.00000000000E+00 -0.12500000000E+03  0.12500000000E+03  0.00000000000E+00 0. -1.
         24    1    1    2    0    0  0.21639360122E+02 -0.30627776870E+02  0.88042384243E+02  0.12500000000E+03  0.80419002446E+02 0.  1.
        -24    1    1    2    0    0 -0.21639360122E+02  0.30627776870E+02 -0.88042384243E+02  0.12500000000E+03  0.80419002446E+02 0. -1.
</event>
<event>
 4    1  0.1699921E-001  0.1250000E+03  0.7546771E-02  0.1126479E+00
        -11   -1    0    0    0    0  0.00000000000E+00  0.00000000000E+00  0.12500000000E+03  0.12500000000E+03  0.00000000000E+00 0.  1.
         11   -1    0    0    0    0 -0.00000000000E+00 -0.00000000000E+00 -0.12500000000E+03  0.12500000000E+03  0.00000000000E+00 0. -1.
         24    1    1    2    0    0 -0.18942897390E+01 -0.18777709580E+02  0.93816807316E+02  0.12500000000E+03  0.80419002446E+02 0.  1.
        -24    1    1    2    0    0  0.18942897390E+01  0.18777709580E+02 -0.93816807316E+02  0.12500000000E+03  0.80419002446E+02 0. -1.
</event>
<event>
 4    1  0.1699921E-001  0.1250000E+03  0.7546771E-02  0.1126479E+00
        -11   -1    0    0    0    0  0.00000000000E+00  0.00000000000E+00  0.12500000000E+03  0.12500000000E+03  0.00000000000E+00 0.  1.
         11   -1    0    0    0    0 -0.00000000000E+00 -0.00000000000E+00 -0.12500000000E+03  0.12500000000E+03  0.00000000000E+00 0. -1.
         24    1    1    2    0    0  0.34923776065E+02 -0.38017546299E+02  0.80577789027E+02  0.12500000000E+03  0.80419002446E+02 0.  1.
        -24    1    1    2    0    0 -0.34923776065E+02  0.38017546299E+02 -0.80577789027E+02  0.12500000000E+03  0.80419002446E+02 0. -1.
</event>
<event>
 4    1  0.1699921E-001  0.1250000E+03  0.7546771E-02  0.1126479E+00
        -11   -1    0    0    0    0  0.00000000000E+00  0.00000000000E+00  0.12500000000E+03  0.12500000000E+03  0.00000000000E+00 0.  1.
         11   -1    0    0    0    0 -0.00000000000E+00 -0.00000000000E+00 -0.12500000000E+03  0.12500000000E+03  0.00000000000E+00 0. -1.
         24    1    1    2    0    0 -0.51641557479E+02  0.79455533041E+02 -0.13332361231E+02  0.12500000000E+03  0.80419002446E+02 0. -1.
        -24    1    1    2    0    0  0.51641557479E+02 -0.79455533041E+02  0.13332361231E+02  0.12500000000E+03  0.80419002446E+02 0.  1.
</event>
<event>
 4    1  0.1699921E-001  0.1250000E+03  0.7546771E-02  0.1126479E+00
        -11   -1    0    0    0    0  0.00000000000E+00  0.00000000000E+00  0.12500000000E+03  0.12500000000E+03  0.00000000000E+00 0.  1.
         11   -1    0    0    0    0 -0.00000000000E+00 -0.00000000000E+00 -0.12500000000E+03  0.12500000000E+03  0.00000000000E+00 0. -1.
         24    1    1    2    0    0 -0.31812781024E+01 -0.69622159163E+01  0.95389680075E+02  0.12500000000E+03  0.80419002446E+02 0.  1.
        -24    1    1    2    0    0  0.31812781024E+01  0.69622159163E+01 -0.95389680075E+02  0.12500000000E+03  0.80419002446E+02 0. -1.
</event>
<event>
 4    1  0.1699921E-001  0.1250000E+03  0.7546771E-02  0.1126479E+00
        -11   -1    0    0    0    0  0.00000000000E+00  0.00000000000E+00  0.12500000000E+03  0.12500000000E+03  0.00000000000E+00 0.  1.
         11   -1    0    0    0    0 -0.00000000000E+00 -0.00000000000E+00 -0.12500000000E+03  0.12500000000E+03  0.00000000000E+00 0. -1.
         24    1    1    2    0    0  0.13410401714E+02  0.11768857772E+02  0.94018291615E+02  0.12500000000E+03  0.80419002446E+02 0.  1.
        -24    1    1    2    0    0 -0.13410401714E+02 -0.11768857772E+02 -0.94018291615E+02  0.12500000000E+03  0.80419002446E+02 0. -1.
</event>
<event>
 4    1  0.1699921E-001  0.1250000E+03  0.7546771E-02  0.1126479E+00
        -11   -1    0    0    0    0  0.00000000000E+00  0.00000000000E+00  0.12500000000E+03  0.12500000000E+03  0.00000000000E+00 0.  1.
         11   -1    0    0    0    0 -0.00000000000E+00 -0.00000000000E+00 -0.12500000000E+03  0.12500000000E+03  0.00000000000E+00 0. -1.
         24    1    1    2    0    0  0.74828591827E+02  0.27794383630E+02  0.52781986790E+02  0.12500000000E+03  0.80419002446E+02 0.  1.
        -24    1    1    2    0    0 -0.74828591827E+02 -0.27794383630E+02 -0.52781986790E+02  0.12500000000E+03  0.80419002446E+02 0. -1.
</event>
<event>
 4    1  0.1699921E-001  0.1250000E+03  0.7546771E-02  0.1126479E+00
        -11   -1    0    0    0    0  0.00000000000E+00  0.00000000000E+00  0.12500000000E+03  0.12500000000E+03  0.00000000000E+00 0.  1.
         11   -1    0    0    0    0 -0.00000000000E+00 -0.00000000000E+00 -0.12500000000E+03  0.12500000000E+03  0.00000000000E+00 0. -1.
         24    1    1    2    0    0 -0.64426981844E+02  0.60529883225E+02  0.36648073523E+02  0.12500000000E+03  0.80419002446E+02 0. -1.
        -24    1    1    2    0    0  0.64426981844E+02 -0.60529883225E+02 -0.36648073523E+02  0.12500000000E+03  0.80419002446E+02 0.  0.
</event>
<event>
 4    1  0.1699921E-001  0.1250000E+03  0.7546771E-02  0.1126479E+00
        -11   -1    0    0    0    0  0.00000000000E+00  0.00000000000E+00  0.12500000000E+03  0.12500000000E+03  0.00000000000E+00 0.  1.
         11   -1    0    0    0    0 -0.00000000000E+00 -0.00000000000E+00 -0.12500000000E+03  0.12500000000E+03  0.00000000000E+00 0. -1.
         24    1    1    2    0    0  0.14634841987E+02  0.29355155643E+02  0.89899278544E+02  0.12500000000E+03  0.80419002446E+02 0.  1.
        -24    1    1    2    0    0 -0.14634841987E+02 -0.29355155643E+02 -0.89899278544E+02  0.12500000000E+03  0.80419002446E+02 0. -1.
</event>
<event>
 4    1  0.1699921E-001  0.1250000E+03  0.7546771E-02  0.1126479E+00
        -11   -1    0    0    0    0  0.00000000000E+00  0.00000000000E+00  0.12500000000E+03  0.12500000000E+03  0.00000000000E+00 0.  1.
         11   -1    0    0    0    0 -0.00000000000E+00 -0.00000000000E+00 -0.12500000000E+03  0.12500000000E+03  0.00000000000E+00 0. -1.
         24    1    1    2    0    0 -0.52540561529E+02  0.11518778683E+02  0.79149170416E+02  0.12500000000E+03  0.80419002446E+02 0.  1.
        -24    1    1    2    0    0  0.52540561529E+02 -0.11518778683E+02 -0.79149170416E+02  0.12500000000E+03  0.80419002446E+02 0. -1.
</event>
<event>
 4    1  0.1699921E-001  0.1250000E+03  0.7546771E-02  0.1126479E+00
        -11   -1    0    0    0    0  0.00000000000E+00  0.00000000000E+00  0.12500000000E+03  0.12500000000E+03  0.00000000000E+00 0.  1.
         11   -1    0    0    0    0 -0.00000000000E+00 -0.00000000000E+00 -0.12500000000E+03  0.12500000000E+03  0.00000000000E+00 0. -1.
         24    1    1    2    0    0 -0.88271692147E+02  0.29786478199E+02  0.21878256962E+02  0.12500000000E+03  0.80419002446E+02 0.  0.
        -24    1    1    2    0    0  0.88271692147E+02 -0.29786478199E+02 -0.21878256962E+02  0.12500000000E+03  0.80419002446E+02 0. -1.
</event>
<event>
 4    1  0.1699921E-001  0.1250000E+03  0.7546771E-02  0.1126479E+00
        -11   -1    0    0    0    0  0.00000000000E+00  0.00000000000E+00  0.12500000000E+03  0.12500000000E+03  0.00000000000E+00 0.  1.
         11   -1    0    0    0    0 -0.00000000000E+00 -0.00000000000E+00 -0.12500000000E+03  0.12500000000E+03  0.00000000000E+00 0. -1.
         24    1    1    2    0    0  0.38939898309E+02  0.38528139532E+02  0.78466877277E+02  0.12500000000E+03  0.80419002446E+02 0.  1.
        -24    1    1    2    0    0 -0.38939898309E+02 -0.38528139532E+02 -0.78466877277E+02  0.12500000000E+03  0.80419002446E+02 0. -1.
</event>
<event>
 4    1  0.1699921E-001  0.1250000E+03  0.7546771E-02  0.1126479E+00
        -11   -1    0    0    0    0  0.00000000000E+00  0.00000000000E+00  0.12500000000E+03  0.12500000000E+03  0.00000000000E+00 0.  1.
         11   -1    0    0    0    0 -0.00000000000E+00 -0.00000000000E+00 -0.12500000000E+03  0.12500000000E+03  0.00000000000E+00 0. -1.
         24    1    1    2    0    0 -0.33351815106E+01 -0.13583288020E+02  0.94668658470E+02  0.12500000000E+03  0.80419002446E+02 0.  1.
        -24    1    1    2    0    0  0.33351815106E+01  0.13583288020E+02 -0.94668658470E+02  0.12500000000E+03  0.80419002446E+02 0. -1.
</event>
<event>
 4    1  0.1699921E-001  0.1250000E+03  0.7546771E-02  0.1126479E+00
        -11   -1    0    0    0    0  0.00000000000E+00  0.00000000000E+00  0.12500000000E+03  0.12500000000E+03  0.00000000000E+00 0.  1.
         11   -1    0    0    0    0 -0.00000000000E+00 -0.00000000000E+00 -0.12500000000E+03  0.12500000000E+03  0.00000000000E+00 0. -1.
         24    1    1    2    0    0 -0.56459776063E+02  0.45611497916E+02  0.62367210859E+02  0.12500000000E+03  0.80419002446E+02 0.  1.
        -24    1    1    2    0    0  0.56459776063E+02 -0.45611497916E+02 -0.62367210859E+02  0.12500000000E+03  0.80419002446E+02 0. -1.
</event>
<event>
 4    1  0.1699921E-001  0.1250000E+03  0.7546771E-02  0.1126479E+00
        -11   -1    0    0    0    0  0.00000000000E+00  0.00000000000E+00  0.12500000000E+03  0.12500000000E+03  0.00000000000E+00 0.  1.
         11   -1    0    0    0    0 -0.00000000000E+00 -0.00000000000E+00 -0.12500000000E+03  0.12500000000E+03  0.00000000000E+00 0. -1.
         24    1    1    2    0    0  0.12554951650E+02  0.79323003866E+02  0.52038623083E+02  0.12500000000E+03  0.80419002446E+02 0.  1.
        -24    1    1    2    0    0 -0.12554951650E+02 -0.79323003866E+02 -0.52038623083E+02  0.12500000000E+03  0.80419002446E+02 0. -1.
</event>
<event>
 4    1  0.1699921E-001  0.1250000E+03  0.7546771E-02  0.1126479E+00
        -11   -1    0    0    0    0  0.00000000000E+00  0.00000000000E+00  0.12500000000E+03  0.12500000000E+03  0.00000000000E+00 0.  1.
         11   -1    0    0    0    0 -0.00000000000E+00 -0.00000000000E+00 -0.12500000000E+03  0.12500000000E+03  0.00000000000E+00 0. -1.
         24    1    1    2    0    0 -0.62131779255E+02  0.68342885838E+02  0.25033497708E+02  0.12500000000E+03  0.80419002446E+02 0.  1.
        -24    1    1    2    0    0  0.62131779255E+02 -0.68342885838E+02 -0.25033497708E+02  0.12500000000E+03  0.80419002446E+02 0.  0.
</event>
<event>
 4    1  0.1699921E-001  0.1250000E+03  0.7546771E-02  0.1126479E+00
        -11   -1    0    0    0    0  0.00000000000E+00  0.00000000000E+00  0.12500000000E+03  0.12500000000E+03  0.00000000000E+00 0.  1.
         11   -1    0    0    0    0 -0.00000000000E+00 -0.00000000000E+00 -0.12500000000E+03  0.12500000000E+03  0.00000000000E+00 0. -1.
         24    1    1    2    0    0 -0.40441937022E+02  0.32420954298E+02  0.80443243955E+02  0.12500000000E+03  0.80419002446E+02 0.  1.
        -24    1    1    2    0    0  0.40441937022E+02 -0.32420954298E+02 -0.80443243955E+02  0.12500000000E+03  0.80419002446E+02 0. -1.
</event>
<event>
 4    1  0.1699921E-001  0.1250000E+03  0.7546771E-02  0.1126479E+00
        -11   -1    0    0    0    0  0.00000000000E+00  0.00000000000E+00  0.12500000000E+03  0.12500000000E+03  0.00000000000E+00 0.  1.
         11   -1    0    0    0    0 -0.00000000000E+00 -0.00000000000E+00 -0.12500000000E+03  0.12500000000E+03  0.00000000000E+00 0. -1.
         24    1    1    2    0    0 -0.56620410133E+02  0.12961088246E+02  0.76052109724E+02  0.12500000000E+03  0.80419002446E+02 0.  1.
        -24    1    1    2    0    0  0.56620410133E+02 -0.12961088246E+02 -0.76052109724E+02  0.12500000000E+03  0.80419002446E+02 0. -1.
</event>
<event>
 4    1  0.1699921E-001  0.1250000E+03  0.7546771E-02  0.1126479E+00
        -11   -1    0    0    0    0  0.00000000000E+00  0.00000000000E+00  0.12500000000E+03  0.12500000000E+03  0.00000000000E+00 0.  1.
         11   -1    0    0    0    0 -0.00000000000E+00 -0.00000000000E+00 -0.12500000000E+03  0.12500000000E+03  0.00000000000E+00 0. -1.
         24    1    1    2    0    0  0.46038494583E+02 -0.27108238371E+02  0.79393856655E+02  0.12500000000E+03  0.80419002446E+02 0.  1.
        -24    1    1    2    0    0 -0.46038494583E+02  0.27108238371E+02 -0.79393856655E+02  0.12500000000E+03  0.80419002446E+02 0. -1.
</event>
<event>
 4    1  0.1699921E-001  0.1250000E+03  0.7546771E-02  0.1126479E+00
        -11   -1    0    0    0    0  0.00000000000E+00  0.00000000000E+00  0.12500000000E+03  0.12500000000E+03  0.00000000000E+00 0.  1.
         11   -1    0    0    0    0 -0.00000000000E+00 -0.00000000000E+00 -0.12500000000E+03  0.12500000000E+03  0.00000000000E+00 0. -1.
         24    1    1    2    0    0 -0.18300885359E+01  0.25762911259E+02  0.92145033643E+02  0.12500000000E+03  0.80419002446E+02 0.  1.
        -24    1    1    2    0    0  0.18300885359E+01 -0.25762911259E+02 -0.92145033643E+02  0.12500000000E+03  0.80419002446E+02 0. -1.
</event>
<event>
 4    1  0.1699921E-001  0.1250000E+03  0.7546771E-02  0.1126479E+00
        -11   -1    0    0    0    0  0.00000000000E+00  0.00000000000E+00  0.12500000000E+03  0.12500000000E+03  0.00000000000E+00 0.  1.
         11   -1    0    0    0    0 -0.00000000000E+00 -0.00000000000E+00 -0.12500000000E+03  0.12500000000E+03  0.00000000000E+00 0. -1.
         24    1    1    2    0    0  0.46598599153E+02  0.35561944067E+02  0.75641937685E+02  0.12500000000E+03  0.80419002446E+02 0.  1.
        -24    1    1    2    0    0 -0.46598599153E+02 -0.35561944067E+02 -0.75641937685E+02  0.12500000000E+03  0.80419002446E+02 0. -1.
</event>
<event>
 4    1  0.1699921E-001  0.1250000E+03  0.7546771E-02  0.1126479E+00
        -11   -1    0    0    0    0  0.00000000000E+00  0.00000000000E+00  0.12500000000E+03  0.12500000000E+03  0.00000000000E+00 0.  1.
         11   -1    0    0    0    0 -0.00000000000E+00 -0.00000000000E+00 -0.12500000000E+03  0.12500000000E+03  0.00000000000E+00 0. -1.
         24    1    1    2    0    0  0.63966209798E+02 -0.62173854602E+02  0.34648518780E+02  0.12500000000E+03  0.80419002446E+02 0.  1.
        -24    1    1    2    0    0 -0.63966209798E+02  0.62173854602E+02 -0.34648518780E+02  0.12500000000E+03  0.80419002446E+02 0. -1.
</event>
<event>
 4    1  0.1699921E-001  0.1250000E+03  0.7546771E-02  0.1126479E+00
        -11   -1    0    0    0    0  0.00000000000E+00  0.00000000000E+00  0.12500000000E+03  0.12500000000E+03  0.00000000000E+00 0.  1.
         11   -1    0    0    0    0 -0.00000000000E+00 -0.00000000000E+00 -0.12500000000E+03  0.12500000000E+03  0.00000000000E+00 0. -1.
         24    1    1    2    0    0  0.11596004373E+02  0.73083524206E+02  0.60680435214E+02  0.12500000000E+03  0.80419002446E+02 0.  1.
        -24    1    1    2    0    0 -0.11596004373E+02 -0.73083524206E+02 -0.60680435214E+02  0.12500000000E+03  0.80419002446E+02 0. -1.
</event>
<event>
 4    1  0.1699921E-001  0.1250000E+03  0.7546771E-02  0.1126479E+00
        -11   -1    0    0    0    0  0.00000000000E+00  0.00000000000E+00  0.12500000000E+03  0.12500000000E+03  0.00000000000E+00 0.  1.
         11   -1    0    0    0    0 -0.00000000000E+00 -0.00000000000E+00 -0.12500000000E+03  0.12500000000E+03  0.00000000000E+00 0. -1.
         24    1    1    2    0    0  0.92527697614E+01  0.36462757857E+02  0.87992258676E+02  0.12500000000E+03  0.80419002446E+02 0.  1.
        -24    1    1    2    0    0 -0.92527697614E+01 -0.36462757857E+02 -0.87992258676E+02  0.12500000000E+03  0.80419002446E+02 0. -1.
</event>
<event>
 4    1  0.1699921E-001  0.1250000E+03  0.7546771E-02  0.1126479E+00
        -11   -1    0    0    0    0  0.00000000000E+00  0.00000000000E+00  0.12500000000E+03  0.12500000000E+03  0.00000000000E+00 0.  1.
         11   -1    0    0    0    0 -0.00000000000E+00 -0.00000000000E+00 -0.12500000000E+03  0.12500000000E+03  0.00000000000E+00 0. -1.
         24    1    1    2    0    0 -0.72783157369E+02  0.51405910858E+02  0.34897397867E+02  0.12500000000E+03  0.80419002446E+02 0.  1.
        -24    1    1    2    0    0  0.72783157369E+02 -0.51405910858E+02 -0.34897397867E+02  0.12500000000E+03  0.80419002446E+02 0. -1.
</event>
<event>
 4    1  0.1699921E-001  0.1250000E+03  0.7546771E-02  0.1126479E+00
        -11   -1    0    0    0    0  0.00000000000E+00  0.00000000000E+00  0.12500000000E+03  0.12500000000E+03  0.00000000000E+00 0.  1.
         11   -1    0    0    0    0 -0.00000000000E+00 -0.00000000000E+00 -0.12500000000E+03  0.12500000000E+03  0.00000000000E+00 0. -1.
         24    1    1    2    0    0 -0.21931901973E+02 -0.80506306347E+01  0.92800663079E+02  0.12500000000E+03  0.80419002446E+02 0.  0.
        -24    1    1    2    0    0  0.21931901973E+02  0.80506306347E+01 -0.92800663079E+02  0.12500000000E+03  0.80419002446E+02 0.  0.
</event>
<event>
 4    1  0.1699921E-001  0.1250000E+03  0.7546771E-02  0.1126479E+00
        -11   -1    0    0    0    0  0.00000000000E+00  0.00000000000E+00  0.12500000000E+03  0.12500000000E+03  0.00000000000E+00 0.  1.
         11   -1    0    0    0    0 -0.00000000000E+00 -0.00000000000E+00 -0.12500000000E+03  0.12500000000E+03  0.00000000000E+00 0. -1.
         24    1    1    2    0    0  0.43559220002E+01 -0.11865251449E+02  0.94857924272E+02  0.12500000000E+03  0.80419002446E+02 0.  1.
        -24    1    1    2    0    0 -0.43559220002E+01  0.11865251449E+02 -0.94857924272E+02  0.12500000000E+03  0.80419002446E+02 0. -1.
</event>
<event>
 4    1  0.1699921E-001  0.1250000E+03  0.7546771E-02  0.1126479E+00
        -11   -1    0    0    0    0  0.00000000000E+00  0.00000000000E+00  0.12500000000E+03  0.12500000000E+03  0.00000000000E+00 0.  1.
         11   -1    0    0    0    0 -0.00000000000E+00 -0.00000000000E+00 -0.12500000000E+03  0.12500000000E+03  0.00000000000E+00 0. -1.
         24    1    1    2    0    0 -0.38875491893E+01 -0.36266095184E+02  0.88472828298E+02  0.12500000000E+03  0.80419002446E+02 0.  1.
        -24    1    1    2    0    0  0.38875491893E+01  0.36266095184E+02 -0.88472828298E+02  0.12500000000E+03  0.80419002446E+02 0. -1.
</event>
<event>
 4    1  0.1699921E-001  0.1250000E+03  0.7546771E-02  0.1126479E+00
        -11   -1    0    0    0    0  0.00000000000E+00  0.00000000000E+00  0.12500000000E+03  0.12500000000E+03  0.00000000000E+00 0.  1.
         11   -1    0    0    0    0 -0.00000000000E+00 -0.00000000000E+00 -0.12500000000E+03  0.12500000000E+03  0.00000000000E+00 0. -1.
         24    1    1    2    0    0  0.27887526636E+02 -0.14107648634E+02  0.90449124671E+02  0.12500000000E+03  0.80419002446E+02 0.  1.
        -24    1    1    2    0    0 -0.27887526636E+02  0.14107648634E+02 -0.90449124671E+02  0.12500000000E+03  0.80419002446E+02 0. -1.
</event>
<event>
 4    1  0.1699921E-001  0.1250000E+03  0.7546771E-02  0.1126479E+00
        -11   -1    0    0    0    0  0.00000000000E+00  0.00000000000E+00  0.12500000000E+03  0.12500000000E+03  0.00000000000E+00 0. -1.
         11   -1    0    0    0    0 -0.00000000000E+00 -0.00000000000E+00 -0.12500000000E+03  0.12500000000E+03  0.00000000000E+00 0.  1.
         24    1    1    2    0    0  0.36301709049E+02  0.50315229203E+02  0.72858408410E+02  0.12500000000E+03  0.80419002446E+02 0.  0.
        -24    1    1    2    0    0 -0.36301709049E+02 -0.50315229203E+02 -0.72858408410E+02  0.12500000000E+03  0.80419002446E+02 0.  1.
</event>
<event>
 4    1  0.1699921E-001  0.1250000E+03  0.7546771E-02  0.1126479E+00
        -11   -1    0    0    0    0  0.00000000000E+00  0.00000000000E+00  0.12500000000E+03  0.12500000000E+03  0.00000000000E+00 0.  1.
         11   -1    0    0    0    0 -0.00000000000E+00 -0.00000000000E+00 -0.12500000000E+03  0.12500000000E+03  0.00000000000E+00 0. -1.
         24    1    1    2    0    0  0.65657944690E+02 -0.46976694081E+02  0.51381013593E+02  0.12500000000E+03  0.80419002446E+02 0.  1.
        -24    1    1    2    0    0 -0.65657944690E+02  0.46976694081E+02 -0.51381013593E+02  0.12500000000E+03  0.80419002446E+02 0. -1.
</event>
<event>
 4    1  0.1699921E-001  0.1250000E+03  0.7546771E-02  0.1126479E+00
        -11   -1    0    0    0    0  0.00000000000E+00  0.00000000000E+00  0.12500000000E+03  0.12500000000E+03  0.00000000000E+00 0.  1.
         11   -1    0    0    0    0 -0.00000000000E+00 -0.00000000000E+00 -0.12500000000E+03  0.12500000000E+03  0.00000000000E+00 0. -1.
         24    1    1    2    0    0  0.81600667330E+01 -0.66379073588E+02  0.68447176320E+02  0.12500000000E+03  0.80419002446E+02 0.  1.
        -24    1    1    2    0    0 -0.81600667330E+01  0.66379073588E+02 -0.68447176320E+02  0.12500000000E+03  0.80419002446E+02 0. -1.
</event>
<event>
 4    1  0.1699921E-001  0.1250000E+03  0.7546771E-02  0.1126479E+00
        -11   -1    0    0    0    0  0.00000000000E+00  0.00000000000E+00  0.12500000000E+03  0.12500000000E+03  0.00000000000E+00 0.  1.
         11   -1    0    0    0    0 -0.00000000000E+00 -0.00000000000E+00 -0.12500000000E+03  0.12500000000E+03  0.00000000000E+00 0. -1.
         24    1    1    2    0    0  0.43321579632E+01 -0.16630185919E+02  0.94140604254E+02  0.12500000000E+03  0.80419002446E+02 0.  1.
        -24    1    1    2    0    0 -0.43321579632E+01  0.16630185919E+02 -0.94140604254E+02  0.12500000000E+03  0.80419002446E+02 0.  1.
</event>
<event>
 4    1  0.1699921E-001  0.1250000E+03  0.7546771E-02  0.1126479E+00
        -11   -1    0    0    0    0  0.00000000000E+00  0.00000000000E+00  0.12500000000E+03  0.12500000000E+03  0.00000000000E+00 0.  1.
         11   -1    0    0    0    0 -0.00000000000E+00 -0.00000000000E+00 -0.12500000000E+03  0.12500000000E+03  0.00000000000E+00 0. -1.
         24    1    1    2    0    0 -0.42764583323E+02 -0.38244772664E+02  0.76591852196E+02  0.12500000000E+03  0.80419002446E+02 0.  1.
        -24    1    1    2    0    0  0.42764583323E+02  0.38244772664E+02 -0.76591852196E+02  0.12500000000E+03  0.80419002446E+02 0. -1.
</event>
<event>
 4    1  0.1699921E-001  0.1250000E+03  0.7546771E-02  0.1126479E+00
        -11   -1    0    0    0    0  0.00000000000E+00  0.00000000000E+00  0.12500000000E+03  0.12500000000E+03  0.00000000000E+00 0.  1.
         11   -1    0    0    0    0 -0.00000000000E+00 -0.00000000000E+00 -0.12500000000E+03  0.12500000000E+03  0.00000000000E+00 0. -1.
         24    1    1    2    0    0  0.17364102062E+01  0.91420770053E+02  0.28231396143E+02  0.12500000000E+03  0.80419002446E+02 0.  1.
        -24    1    1    2    0    0 -0.17364102062E+01 -0.91420770053E+02 -0.28231396143E+02  0.12500000000E+03  0.80419002446E+02 0. -1.
</event>
<event>
 4    1  0.1699921E-001  0.1250000E+03  0.7546771E-02  0.1126479E+00
        -11   -1    0    0    0    0  0.00000000000E+00  0.00000000000E+00  0.12500000000E+03  0.12500000000E+03  0.00000000000E+00 0.  1.
         11   -1    0    0    0    0 -0.00000000000E+00 -0.00000000000E+00 -0.12500000000E+03  0.12500000000E+03  0.00000000000E+00 0. -1.
         24    1    1    2    0    0 -0.10885761858E+02  0.17181737356E+02  0.93509743534E+02  0.12500000000E+03  0.80419002446E+02 0.  1.
        -24    1    1    2    0    0  0.10885761858E+02 -0.17181737356E+02 -0.93509743534E+02  0.12500000000E+03  0.80419002446E+02 0. -1.
</event>
<event>
 4    1  0.1699921E-001  0.1250000E+03  0.7546771E-02  0.1126479E+00
        -11   -1    0    0    0    0  0.00000000000E+00  0.00000000000E+00  0.12500000000E+03  0.12500000000E+03  0.00000000000E+00 0.  1.
         11   -1    0    0    0    0 -0.00000000000E+00 -0.00000000000E+00 -0.12500000000E+03  0.12500000000E+03  0.00000000000E+00 0. -1.
         24    1    1    2    0    0  0.57041417380E+02  0.61684516353E+02  0.45815730827E+02  0.12500000000E+03  0.80419002446E+02 0. -1.
        -24    1    1    2    0    0 -0.57041417380E+02 -0.61684516353E+02 -0.45815730827E+02  0.12500000000E+03  0.80419002446E+02 0.  1.
</event>
<event>
 4    1  0.1699921E-001  0.1250000E+03  0.7546771E-02  0.1126479E+00
        -11   -1    0    0    0    0  0.00000000000E+00  0.00000000000E+00  0.12500000000E+03  0.12500000000E+03  0.00000000000E+00 0.  1.
         11   -1    0    0    0    0 -0.00000000000E+00 -0.00000000000E+00 -0.12500000000E+03  0.12500000000E+03  0.00000000000E+00 0. -1.
         24    1    1    2    0    0 -0.20273575319E+02 -0.22126454314E+02  0.90869060790E+02  0.12500000000E+03  0.80419002446E+02 0.  1.
        -24    1    1    2    0    0  0.20273575319E+02  0.22126454314E+02 -0.90869060790E+02  0.12500000000E+03  0.80419002446E+02 0.  0.
</event>
<event>
 4    1  0.1699921E-001  0.1250000E+03  0.7546771E-02  0.1126479E+00
        -11   -1    0    0    0    0  0.00000000000E+00  0.00000000000E+00  0.12500000000E+03  0.12500000000E+03  0.00000000000E+00 0.  1.
         11   -1    0    0    0    0 -0.00000000000E+00 -0.00000000000E+00 -0.12500000000E+03  0.12500000000E+03  0.00000000000E+00 0. -1.
         24    1    1    2    0    0  0.14331317532E+02  0.43155085691E+02  0.84202351288E+02  0.12500000000E+03  0.80419002446E+02 0.  1.
        -24    1    1    2    0    0 -0.14331317532E+02 -0.43155085691E+02 -0.84202351288E+02  0.12500000000E+03  0.80419002446E+02 0. -1.
</event>
<event>
 4    1  0.1699921E-001  0.1250000E+03  0.7546771E-02  0.1126479E+00
        -11   -1    0    0    0    0  0.00000000000E+00  0.00000000000E+00  0.12500000000E+03  0.12500000000E+03  0.00000000000E+00 0.  1.
         11   -1    0    0    0    0 -0.00000000000E+00 -0.00000000000E+00 -0.12500000000E+03  0.12500000000E+03  0.00000000000E+00 0. -1.
         24    1    1    2    0    0 -0.31494633766E+02 -0.32486369498E+02 -0.84323827513E+02  0.12500000000E+03  0.80419002446E+02 0. -1.
        -24    1    1    2    0    0  0.31494633766E+02  0.32486369498E+02  0.84323827513E+02  0.12500000000E+03  0.80419002446E+02 0.  1.
</event>
<event>
 4    1  0.1699921E-001  0.1250000E+03  0.7546771E-02  0.1126479E+00
        -11   -1    0    0    0    0  0.00000000000E+00  0.00000000000E+00  0.12500000000E+03  0.12500000000E+03  0.00000000000E+00 0.  1.
         11   -1    0    0    0    0 -0.00000000000E+00 -0.00000000000E+00 -0.12500000000E+03  0.12500000000E+03  0.00000000000E+00 0. -1.
         24    1    1    2    0    0  0.16959761869E+01  0.67754752473E+02  0.67558872310E+02  0.12500000000E+03  0.80419002446E+02 0.  1.
        -24    1    1    2    0    0 -0.16959761869E+01 -0.67754752473E+02 -0.67558872310E+02  0.12500000000E+03  0.80419002446E+02 0. -1.
</event>
<event>
 4    1  0.1699921E-001  0.1250000E+03  0.7546771E-02  0.1126479E+00
        -11   -1    0    0    0    0  0.00000000000E+00  0.00000000000E+00  0.12500000000E+03  0.12500000000E+03  0.00000000000E+00 0.  1.
         11   -1    0    0    0    0 -0.00000000000E+00 -0.00000000000E+00 -0.12500000000E+03  0.12500000000E+03  0.00000000000E+00 0. -1.
         24    1    1    2    0    0  0.25848934022E+02  0.22767486133E+02  0.89281903154E+02  0.12500000000E+03  0.80419002446E+02 0.  1.
        -24    1    1    2    0    0 -0.25848934022E+02 -0.22767486133E+02 -0.89281903154E+02  0.12500000000E+03  0.80419002446E+02 0. -1.
</event>
<event>
 4    1  0.1699921E-001  0.1250000E+03  0.7546771E-02  0.1126479E+00
        -11   -1    0    0    0    0  0.00000000000E+00  0.00000000000E+00  0.12500000000E+03  0.12500000000E+03  0.00000000000E+00 0.  1.
         11   -1    0    0    0    0 -0.00000000000E+00 -0.00000000000E+00 -0.12500000000E+03  0.12500000000E+03  0.00000000000E+00 0. -1.
         24    1    1    2    0    0 -0.26373628352E+02  0.27648094658E+02  0.87737099536E+02  0.12500000000E+03  0.80419002446E+02 0.  1.
        -24    1    1    2    0    0  0.26373628352E+02 -0.27648094658E+02 -0.87737099536E+02  0.12500000000E+03  0.80419002446E+02 0. -1.
</event>
<event>
 4    1  0.1699921E-001  0.1250000E+03  0.7546771E-02  0.1126479E+00
        -11   -1    0    0    0    0  0.00000000000E+00  0.00000000000E+00  0.12500000000E+03  0.12500000000E+03  0.00000000000E+00 0.  1.
         11   -1    0    0    0    0 -0.00000000000E+00 -0.00000000000E+00 -0.12500000000E+03  0.12500000000E+03  0.00000000000E+00 0. -1.
         24    1    1    2    0    0 -0.65045395612E+02 -0.54802288645E+02  0.43858747299E+02  0.12500000000E+03  0.80419002446E+02 0.  0.
        -24    1    1    2    0    0  0.65045395612E+02  0.54802288645E+02 -0.43858747299E+02  0.12500000000E+03  0.80419002446E+02 0. -1.
</event>
<event>
 4    1  0.1699921E-001  0.1250000E+03  0.7546771E-02  0.1126479E+00
        -11   -1    0    0    0    0  0.00000000000E+00  0.00000000000E+00  0.12500000000E+03  0.12500000000E+03  0.00000000000E+00 0.  1.
         11   -1    0    0    0    0 -0.00000000000E+00 -0.00000000000E+00 -0.12500000000E+03  0.12500000000E+03  0.00000000000E+00 0. -1.
         24    1    1    2    0    0 -0.39871207504E+02  0.25982394937E+01  0.86955850921E+02  0.12500000000E+03  0.80419002446E+02 0.  1.
        -24    1    1    2    0    0  0.39871207504E+02 -0.25982394937E+01 -0.86955850921E+02  0.12500000000E+03  0.80419002446E+02 0. -1.
</event>
<event>
 4    1  0.1699921E-001  0.1250000E+03  0.7546771E-02  0.1126479E+00
        -11   -1    0    0    0    0  0.00000000000E+00  0.00000000000E+00  0.12500000000E+03  0.12500000000E+03  0.00000000000E+00 0.  1.
         11   -1    0    0    0    0 -0.00000000000E+00 -0.00000000000E+00 -0.12500000000E+03  0.12500000000E+03  0.00000000000E+00 0. -1.
         24    1    1    2    0    0  0.26838307212E+01 -0.26372875594E+02  0.91951359594E+02  0.12500000000E+03  0.80419002446E+02 0.  1.
        -24    1    1    2    0    0 -0.26838307212E+01  0.26372875594E+02 -0.91951359594E+02  0.12500000000E+03  0.80419002446E+02 0. -1.
</event>
<event>
 4    1  0.1699921E-001  0.1250000E+03  0.7546771E-02  0.1126479E+00
        -11   -1    0    0    0    0  0.00000000000E+00  0.00000000000E+00  0.12500000000E+03  0.12500000000E+03  0.00000000000E+00 0.  1.
         11   -1    0    0    0    0 -0.00000000000E+00 -0.00000000000E+00 -0.12500000000E+03  0.12500000000E+03  0.00000000000E+00 0. -1.
         24    1    1    2    0    0 -0.37789805939E+02  0.34295727769E+02  0.80953799599E+02  0.12500000000E+03  0.80419002446E+02 0.  1.
        -24    1    1    2    0    0  0.37789805939E+02 -0.34295727769E+02 -0.80953799599E+02  0.12500000000E+03  0.80419002446E+02 0. -1.
</event>
<event>
 4    1  0.1699921E-001  0.1250000E+03  0.7546771E-02  0.1126479E+00
        -11   -1    0    0    0    0  0.00000000000E+00  0.00000000000E+00  0.12500000000E+03  0.12500000000E+03  0.00000000000E+00 0.  1.
         11   -1    0    0    0    0 -0.00000000000E+00 -0.00000000000E+00 -0.12500000000E+03  0.12500000000E+03  0.00000000000E+00 0. -1.
         24    1    1    2    0    0  0.43542513321E+02  0.57172955100E+02  0.63190875801E+02  0.12500000000E+03  0.80419002446E+02 0.  1.
        -24    1    1    2    0    0 -0.43542513321E+02 -0.57172955100E+02 -0.63190875801E+02  0.12500000000E+03  0.80419002446E+02 0. -1.
</event>
<event>
 4    1  0.1699921E-001  0.1250000E+03  0.7546771E-02  0.1126479E+00
        -11   -1    0    0    0    0  0.00000000000E+00  0.00000000000E+00  0.12500000000E+03  0.12500000000E+03  0.00000000000E+00 0.  1.
         11   -1    0    0    0    0 -0.00000000000E+00 -0.00000000000E+00 -0.12500000000E+03  0.12500000000E+03  0.00000000000E+00 0. -1.
         24    1    1    2    0    0  0.38114662513E+02  0.64329077967E+02  0.59722912480E+02  0.12500000000E+03  0.80419002446E+02 0.  1.
        -24    1    1    2    0    0 -0.38114662513E+02 -0.64329077967E+02 -0.59722912480E+02  0.12500000000E+03  0.80419002446E+02 0. -1.
</event>
<event>
 4    1  0.1699921E-001  0.1250000E+03  0.7546771E-02  0.1126479E+00
        -11   -1    0    0    0    0  0.00000000000E+00  0.00000000000E+00  0.12500000000E+03  0.12500000000E+03  0.00000000000E+00 0.  1.
         11   -1    0    0    0    0 -0.00000000000E+00 -0.00000000000E+00 -0.12500000000E+03  0.12500000000E+03  0.00000000000E+00 0. -1.
         24    1    1    2    0    0  0.28268310951E+02 -0.13915363065E+02  0.90360662417E+02  0.12500000000E+03  0.80419002446E+02 0.  1.
        -24    1    1    2    0    0 -0.28268310951E+02  0.13915363065E+02 -0.90360662417E+02  0.12500000000E+03  0.80419002446E+02 0. -1.
</event>
<event>
 4    1  0.1699921E-001  0.1250000E+03  0.7546771E-02  0.1126479E+00
        -11   -1    0    0    0    0  0.00000000000E+00  0.00000000000E+00  0.12500000000E+03  0.12500000000E+03  0.00000000000E+00 0.  1.
         11   -1    0    0    0    0 -0.00000000000E+00 -0.00000000000E+00 -0.12500000000E+03  0.12500000000E+03  0.00000000000E+00 0. -1.
         24    1    1    2    0    0 -0.86532671032E+02 -0.24248136029E+02 -0.32892381927E+02  0.12500000000E+03  0.80419002446E+02 0.  1.
        -24    1    1    2    0    0  0.86532671032E+02  0.24248136029E+02  0.32892381927E+02  0.12500000000E+03  0.80419002446E+02 0. -1.
</event>
<event>
 4    1  0.1699921E-001  0.1250000E+03  0.7546771E-02  0.1126479E+00
        -11   -1    0    0    0    0  0.00000000000E+00  0.00000000000E+00  0.12500000000E+03  0.12500000000E+03  0.00000000000E+00 0.  1.
         11   -1    0    0    0    0 -0.00000000000E+00 -0.00000000000E+00 -0.12500000000E+03  0.12500000000E+03  0.00000000000E+00 0. -1.
         24    1    1    2    0    0 -0.82407889830E+02 -0.44224095130E+02 -0.20271979414E+02  0.12500000000E+03  0.80419002446E+02 0.  0.
        -24    1    1    2    0    0  0.82407889830E+02  0.44224095130E+02  0.20271979414E+02  0.12500000000E+03  0.80419002446E+02 0. -1.
</event>
<event>
 4    1  0.1699921E-001  0.1250000E+03  0.7546771E-02  0.1126479E+00
        -11   -1    0    0    0    0  0.00000000000E+00  0.00000000000E+00  0.12500000000E+03  0.12500000000E+03  0.00000000000E+00 0.  1.
         11   -1    0    0    0    0 -0.00000000000E+00 -0.00000000000E+00 -0.12500000000E+03  0.12500000000E+03  0.00000000000E+00 0. -1.
         24    1    1    2    0    0 -0.10347378167E+02  0.61231012508E+01  0.94937997882E+02  0.12500000000E+03  0.80419002446E+02 0.  0.
        -24    1    1    2    0    0  0.10347378167E+02 -0.61231012508E+01 -0.94937997882E+02  0.12500000000E+03  0.80419002446E+02 0. -1.
</event>
<event>
 4    1  0.1699921E-001  0.1250000E+03  0.7546771E-02  0.1126479E+00
        -11   -1    0    0    0    0  0.00000000000E+00  0.00000000000E+00  0.12500000000E+03  0.12500000000E+03  0.00000000000E+00 0.  1.
         11   -1    0    0    0    0 -0.00000000000E+00 -0.00000000000E+00 -0.12500000000E+03  0.12500000000E+03  0.00000000000E+00 0. -1.
         24    1    1    2    0    0  0.70263122586E+02 -0.22879692257E+02  0.60806227743E+02  0.12500000000E+03  0.80419002446E+02 0.  1.
        -24    1    1    2    0    0 -0.70263122586E+02  0.22879692257E+02 -0.60806227743E+02  0.12500000000E+03  0.80419002446E+02 0.  0.
</event>
<event>
 4    1  0.1699921E-001  0.1250000E+03  0.7546771E-02  0.1126479E+00
        -11   -1    0    0    0    0  0.00000000000E+00  0.00000000000E+00  0.12500000000E+03  0.12500000000E+03  0.00000000000E+00 0.  1.
         11   -1    0    0    0    0 -0.00000000000E+00 -0.00000000000E+00 -0.12500000000E+03  0.12500000000E+03  0.00000000000E+00 0. -1.
         24    1    1    2    0    0 -0.31837936058E+02 -0.20244064781E+02  0.87944912953E+02  0.12500000000E+03  0.80419002446E+02 0.  1.
        -24    1    1    2    0    0  0.31837936058E+02  0.20244064781E+02 -0.87944912953E+02  0.12500000000E+03  0.80419002446E+02 0. -1.
</event>
<event>
 4    1  0.1699921E-001  0.1250000E+03  0.7546771E-02  0.1126479E+00
        -11   -1    0    0    0    0  0.00000000000E+00  0.00000000000E+00  0.12500000000E+03  0.12500000000E+03  0.00000000000E+00 0.  1.
         11   -1    0    0    0    0 -0.00000000000E+00 -0.00000000000E+00 -0.12500000000E+03  0.12500000000E+03  0.00000000000E+00 0. -1.
         24    1    1    2    0    0 -0.14926741614E+01  0.39229090770E+02  0.87273331590E+02  0.12500000000E+03  0.80419002446E+02 0.  1.
        -24    1    1    2    0    0  0.14926741614E+01 -0.39229090770E+02 -0.87273331590E+02  0.12500000000E+03  0.80419002446E+02 0. -1.
</event>
<event>
 4    1  0.1699921E-001  0.1250000E+03  0.7546771E-02  0.1126479E+00
        -11   -1    0    0    0    0  0.00000000000E+00  0.00000000000E+00  0.12500000000E+03  0.12500000000E+03  0.00000000000E+00 0.  1.
         11   -1    0    0    0    0 -0.00000000000E+00 -0.00000000000E+00 -0.12500000000E+03  0.12500000000E+03  0.00000000000E+00 0. -1.
         24    1    1    2    0    0  0.86210952262E+02 -0.35986344182E+02  0.20747018777E+02  0.12500000000E+03  0.80419002446E+02 0.  0.
        -24    1    1    2    0    0 -0.86210952262E+02  0.35986344182E+02 -0.20747018777E+02  0.12500000000E+03  0.80419002446E+02 0. -1.
</event>
<event>
 4    1  0.1699921E-001  0.1250000E+03  0.7546771E-02  0.1126479E+00
        -11   -1    0    0    0    0  0.00000000000E+00  0.00000000000E+00  0.12500000000E+03  0.12500000000E+03  0.00000000000E+00 0.  1.
         11   -1    0    0    0    0 -0.00000000000E+00 -0.00000000000E+00 -0.12500000000E+03  0.12500000000E+03  0.00000000000E+00 0. -1.
         24    1    1    2    0    0  0.82695212289E+01  0.30320399872E+02  0.90388452890E+02  0.12500000000E+03  0.80419002446E+02 0.  1.
        -24    1    1    2    0    0 -0.82695212289E+01 -0.30320399872E+02 -0.90388452890E+02  0.12500000000E+03  0.80419002446E+02 0.  1.
</event>
<event>
 4    1  0.1699921E-001  0.1250000E+03  0.7546771E-02  0.1126479E+00
        -11   -1    0    0    0    0  0.00000000000E+00  0.00000000000E+00  0.12500000000E+03  0.12500000000E+03  0.00000000000E+00 0.  1.
         11   -1    0    0    0    0 -0.00000000000E+00 -0.00000000000E+00 -0.12500000000E+03  0.12500000000E+03  0.00000000000E+00 0. -1.
         24    1    1    2    0    0 -0.40366083461E+02  0.77505842368E+02  0.39002663377E+02  0.12500000000E+03  0.80419002446E+02 0.  1.
        -24    1    1    2    0    0  0.40366083461E+02 -0.77505842368E+02 -0.39002663377E+02  0.12500000000E+03  0.80419002446E+02 0. -1.
</event>
<event>
 4    1  0.1699921E-001  0.1250000E+03  0.7546771E-02  0.1126479E+00
        -11   -1    0    0    0    0  0.00000000000E+00  0.00000000000E+00  0.12500000000E+03  0.12500000000E+03  0.00000000000E+00 0.  1.
         11   -1    0    0    0    0 -0.00000000000E+00 -0.00000000000E+00 -0.12500000000E+03  0.12500000000E+03  0.00000000000E+00 0. -1.
         24    1    1    2    0    0 -0.32841363102E+02 -0.20029025736E+02  0.87624580132E+02  0.12500000000E+03  0.80419002446E+02 0.  1.
        -24    1    1    2    0    0  0.32841363102E+02  0.20029025736E+02 -0.87624580132E+02  0.12500000000E+03  0.80419002446E+02 0. -1.
</event>
<event>
 4    1  0.1699921E-001  0.1250000E+03  0.7546771E-02  0.1126479E+00
        -11   -1    0    0    0    0  0.00000000000E+00  0.00000000000E+00  0.12500000000E+03  0.12500000000E+03  0.00000000000E+00 0.  1.
         11   -1    0    0    0    0 -0.00000000000E+00 -0.00000000000E+00 -0.12500000000E+03  0.12500000000E+03  0.00000000000E+00 0. -1.
         24    1    1    2    0    0  0.44929757644E+01 -0.14798119611E+02  0.94438407814E+02  0.12500000000E+03  0.80419002446E+02 0.  1.
        -24    1    1    2    0    0 -0.44929757644E+01  0.14798119611E+02 -0.94438407814E+02  0.12500000000E+03  0.80419002446E+02 0. -1.
</event>
<event>
 4    1  0.1699921E-001  0.1250000E+03  0.7546771E-02  0.1126479E+00
        -11   -1    0    0    0    0  0.00000000000E+00  0.00000000000E+00  0.12500000000E+03  0.12500000000E+03  0.00000000000E+00 0.  1.
         11   -1    0    0    0    0 -0.00000000000E+00 -0.00000000000E+00 -0.12500000000E+03  0.12500000000E+03  0.00000000000E+00 0. -1.
         24    1    1    2    0    0 -0.35553094511E+02  0.82414456689E+02  0.33190643938E+02  0.12500000000E+03  0.80419002446E+02 0.  1.
        -24    1    1    2    0    0  0.35553094511E+02 -0.82414456689E+02 -0.33190643938E+02  0.12500000000E+03  0.80419002446E+02 0. -1.
</event>
<event>
 4    1  0.1699921E-001  0.1250000E+03  0.7546771E-02  0.1126479E+00
        -11   -1    0    0    0    0  0.00000000000E+00  0.00000000000E+00  0.12500000000E+03  0.12500000000E+03  0.00000000000E+00 0.  1.
         11   -1    0    0    0    0 -0.00000000000E+00 -0.00000000000E+00 -0.12500000000E+03  0.12500000000E+03  0.00000000000E+00 0. -1.
         24    1    1    2    0    0  0.35552533932E+02 -0.29739144545E+02  0.83722067929E+02  0.12500000000E+03  0.80419002446E+02 0.  1.
        -24    1    1    2    0    0 -0.35552533932E+02  0.29739144545E+02 -0.83722067929E+02  0.12500000000E+03  0.80419002446E+02 0. -1.
</event>
<event>
 4    1  0.1699921E-001  0.1250000E+03  0.7546771E-02  0.1126479E+00
        -11   -1    0    0    0    0  0.00000000000E+00  0.00000000000E+00  0.12500000000E+03  0.12500000000E+03  0.00000000000E+00 0.  1.
         11   -1    0    0    0    0 -0.00000000000E+00 -0.00000000000E+00 -0.12500000000E+03  0.12500000000E+03  0.00000000000E+00 0. -1.
         24    1    1    2    0    0  0.61159398889E+02 -0.54838583130E+02  0.49092176296E+02  0.12500000000E+03  0.80419002446E+02 0.  1.
        -24    1    1    2    0    0 -0.61159398889E+02  0.54838583130E+02 -0.49092176296E+02  0.12500000000E+03  0.80419002446E+02 0. -1.
</event>
<event>
 4    1  0.1699921E-001  0.1250000E+03  0.7546771E-02  0.1126479E+00
        -11   -1    0    0    0    0  0.00000000000E+00  0.00000000000E+00  0.12500000000E+03  0.12500000000E+03  0.00000000000E+00 0.  1.
         11   -1    0    0    0    0 -0.00000000000E+00 -0.00000000000E+00 -0.12500000000E+03  0.12500000000E+03  0.00000000000E+00 0. -1.
         24    1    1    2    0    0  0.39345611919E+02 -0.17044142547E+02  0.85552346976E+02  0.12500000000E+03  0.80419002446E+02 0.  1.
        -24    1    1    2    0    0 -0.39345611919E+02  0.17044142547E+02 -0.85552346976E+02  0.12500000000E+03  0.80419002446E+02 0. -1.
</event>
<event>
 4    1  0.1699921E-001  0.1250000E+03  0.7546771E-02  0.1126479E+00
        -11   -1    0    0    0    0  0.00000000000E+00  0.00000000000E+00  0.12500000000E+03  0.12500000000E+03  0.00000000000E+00 0.  1.
         11   -1    0    0    0    0 -0.00000000000E+00 -0.00000000000E+00 -0.12500000000E+03  0.12500000000E+03  0.00000000000E+00 0. -1.
         24    1    1    2    0    0  0.89410345358E+01 -0.73342578988E+01  0.94995003069E+02  0.12500000000E+03  0.80419002446E+02 0.  0.
        -24    1    1    2    0    0 -0.89410345358E+01  0.73342578988E+01 -0.94995003069E+02  0.12500000000E+03  0.80419002446E+02 0. -1.
</event>
<event>
 4    1  0.1699921E-001  0.1250000E+03  0.7546771E-02  0.1126479E+00
        -11   -1    0    0    0    0  0.00000000000E+00  0.00000000000E+00  0.12500000000E+03  0.12500000000E+03  0.00000000000E+00 0.  1.
         11   -1    0    0    0    0 -0.00000000000E+00 -0.00000000000E+00 -0.12500000000E+03  0.12500000000E+03  0.00000000000E+00 0. -1.
         24    1    1    2    0    0  0.30209071514E+02  0.21582568687E+02  0.88200843379E+02  0.12500000000E+03  0.80419002446E+02 0.  1.
        -24    1    1    2    0    0 -0.30209071514E+02 -0.21582568687E+02 -0.88200843379E+02  0.12500000000E+03  0.80419002446E+02 0. -1.
</event>
<event>
 4    1  0.1699921E-001  0.1250000E+03  0.7546771E-02  0.1126479E+00
        -11   -1    0    0    0    0  0.00000000000E+00  0.00000000000E+00  0.12500000000E+03  0.12500000000E+03  0.00000000000E+00 0.  1.
         11   -1    0    0    0    0 -0.00000000000E+00 -0.00000000000E+00 -0.12500000000E+03  0.12500000000E+03  0.00000000000E+00 0. -1.
         24    1    1    2    0    0 -0.92137766644E+02  0.47900144293E+01  0.25406136372E+02  0.12500000000E+03  0.80419002446E+02 0.  1.
        -24    1    1    2    0    0  0.92137766644E+02 -0.47900144293E+01 -0.25406136372E+02  0.12500000000E+03  0.80419002446E+02 0. -1.
</event>
<event>
 4    1  0.1699921E-001  0.1250000E+03  0.7546771E-02  0.1126479E+00
        -11   -1    0    0    0    0  0.00000000000E+00  0.00000000000E+00  0.12500000000E+03  0.12500000000E+03  0.00000000000E+00 0.  1.
         11   -1    0    0    0    0 -0.00000000000E+00 -0.00000000000E+00 -0.12500000000E+03  0.12500000000E+03  0.00000000000E+00 0. -1.
         24    1    1    2    0    0 -0.18586086557E+02  0.91984774025E+02  0.18738804117E+02  0.12500000000E+03  0.80419002446E+02 0.  0.
        -24    1    1    2    0    0  0.18586086557E+02 -0.91984774025E+02 -0.18738804117E+02  0.12500000000E+03  0.80419002446E+02 0. -1.
</event>
<event>
 4    1  0.1699921E-001  0.1250000E+03  0.7546771E-02  0.1126479E+00
        -11   -1    0    0    0    0  0.00000000000E+00  0.00000000000E+00  0.12500000000E+03  0.12500000000E+03  0.00000000000E+00 0.  1.
         11   -1    0    0    0    0 -0.00000000000E+00 -0.00000000000E+00 -0.12500000000E+03  0.12500000000E+03  0.00000000000E+00 0. -1.
         24    1    1    2    0    0 -0.79502228286E+01 -0.34760346793E+02  0.88804821341E+02  0.12500000000E+03  0.80419002446E+02 0.  1.
        -24    1    1    2    0    0  0.79502228286E+01  0.34760346793E+02 -0.88804821341E+02  0.12500000000E+03  0.80419002446E+02 0. -1.
</event>
<event>
 4    1  0.1699921E-001  0.1250000E+03  0.7546771E-02  0.1126479E+00
        -11   -1    0    0    0    0  0.00000000000E+00  0.00000000000E+00  0.12500000000E+03  0.12500000000E+03  0.00000000000E+00 0.  1.
         11   -1    0    0    0    0 -0.00000000000E+00 -0.00000000000E+00 -0.12500000000E+03  0.12500000000E+03  0.00000000000E+00 0. -1.
         24    1    1    2    0    0 -0.18511419843E+02 -0.10215582160E+02  0.93331416266E+02  0.12500000000E+03  0.80419002446E+02 0.  0.
        -24    1    1    2    0    0  0.18511419843E+02  0.10215582160E+02 -0.93331416266E+02  0.12500000000E+03  0.80419002446E+02 0. -1.
</event>
<event>
 4    1  0.1699921E-001  0.1250000E+03  0.7546771E-02  0.1126479E+00
        -11   -1    0    0    0    0  0.00000000000E+00  0.00000000000E+00  0.12500000000E+03  0.12500000000E+03  0.00000000000E+00 0.  1.
         11   -1    0    0    0    0 -0.00000000000E+00 -0.00000000000E+00 -0.12500000000E+03  0.12500000000E+03  0.00000000000E+00 0. -1.
         24    1    1    2    0    0 -0.36492742223E+02 -0.27335522551E+01  0.88422799677E+02  0.12500000000E+03  0.80419002446E+02 0.  1.
        -24    1    1    2    0    0  0.36492742223E+02  0.27335522551E+01 -0.88422799677E+02  0.12500000000E+03  0.80419002446E+02 0. -1.
</event>
<event>
 4    1  0.1699921E-001  0.1250000E+03  0.7546771E-02  0.1126479E+00
        -11   -1    0    0    0    0  0.00000000000E+00  0.00000000000E+00  0.12500000000E+03  0.12500000000E+03  0.00000000000E+00 0.  1.
         11   -1    0    0    0    0 -0.00000000000E+00 -0.00000000000E+00 -0.12500000000E+03  0.12500000000E+03  0.00000000000E+00 0. -1.
         24    1    1    2    0    0 -0.72399300814E+02 -0.54739923179E+01  0.62339078397E+02  0.12500000000E+03  0.80419002446E+02 0.  1.
        -24    1    1    2    0    0  0.72399300814E+02  0.54739923179E+01 -0.62339078397E+02  0.12500000000E+03  0.80419002446E+02 0. -1.
</event>
<event>
 4    1  0.1699921E-001  0.1250000E+03  0.7546771E-02  0.1126479E+00
        -11   -1    0    0    0    0  0.00000000000E+00  0.00000000000E+00  0.12500000000E+03  0.12500000000E+03  0.00000000000E+00 0.  1.
         11   -1    0    0    0    0 -0.00000000000E+00 -0.00000000000E+00 -0.12500000000E+03  0.12500000000E+03  0.00000000000E+00 0. -1.
         24    1    1    2    0    0 -0.40771031614E+02  0.79285388389E+02  0.34775482954E+02  0.12500000000E+03  0.80419002446E+02 0.  1.
        -24    1    1    2    0    0  0.40771031614E+02 -0.79285388389E+02 -0.34775482954E+02  0.12500000000E+03  0.80419002446E+02 0. -1.
</event>
<event>
 4    1  0.1699921E-001  0.1250000E+03  0.7546771E-02  0.1126479E+00
        -11   -1    0    0    0    0  0.00000000000E+00  0.00000000000E+00  0.12500000000E+03  0.12500000000E+03  0.00000000000E+00 0.  1.
         11   -1    0    0    0    0 -0.00000000000E+00 -0.00000000000E+00 -0.12500000000E+03  0.12500000000E+03  0.00000000000E+00 0. -1.
         24    1    1    2    0    0  0.73080990415E+02  0.41763087128E+02  0.45527985231E+02  0.12500000000E+03  0.80419002446E+02 0.  1.
        -24    1    1    2    0    0 -0.73080990415E+02 -0.41763087128E+02 -0.45527985231E+02  0.12500000000E+03  0.80419002446E+02 0.  0.
</event>
<event>
 4    1  0.1699921E-001  0.1250000E+03  0.7546771E-02  0.1126479E+00
        -11   -1    0    0    0    0  0.00000000000E+00  0.00000000000E+00  0.12500000000E+03  0.12500000000E+03  0.00000000000E+00 0.  1.
         11   -1    0    0    0    0 -0.00000000000E+00 -0.00000000000E+00 -0.12500000000E+03  0.12500000000E+03  0.00000000000E+00 0. -1.
         24    1    1    2    0    0 -0.57644068177E+02 -0.76370813184E+02 -0.15634395295E+01  0.12500000000E+03  0.80419002446E+02 0.  1.
        -24    1    1    2    0    0  0.57644068177E+02  0.76370813184E+02  0.15634395295E+01  0.12500000000E+03  0.80419002446E+02 0.  0.
</event>
<event>
 4    1  0.1699921E-001  0.1250000E+03  0.7546771E-02  0.1126479E+00
        -11   -1    0    0    0    0  0.00000000000E+00  0.00000000000E+00  0.12500000000E+03  0.12500000000E+03  0.00000000000E+00 0.  1.
         11   -1    0    0    0    0 -0.00000000000E+00 -0.00000000000E+00 -0.12500000000E+03  0.12500000000E+03  0.00000000000E+00 0. -1.
         24    1    1    2    0    0 -0.21598870728E+02  0.47339833241E+02  0.80313218200E+02  0.12500000000E+03  0.80419002446E+02 0.  1.
        -24    1    1    2    0    0  0.21598870728E+02 -0.47339833241E+02 -0.80313218200E+02  0.12500000000E+03  0.80419002446E+02 0. -1.
</event>
<event>
 4    1  0.1699921E-001  0.1250000E+03  0.7546771E-02  0.1126479E+00
        -11   -1    0    0    0    0  0.00000000000E+00  0.00000000000E+00  0.12500000000E+03  0.12500000000E+03  0.00000000000E+00 0.  1.
         11   -1    0    0    0    0 -0.00000000000E+00 -0.00000000000E+00 -0.12500000000E+03  0.12500000000E+03  0.00000000000E+00 0. -1.
         24    1    1    2    0    0  0.75505307445E+02 -0.46115114797E+02  0.36470930622E+02  0.12500000000E+03  0.80419002446E+02 0.  0.
        -24    1    1    2    0    0 -0.75505307445E+02  0.46115114797E+02 -0.36470930622E+02  0.12500000000E+03  0.80419002446E+02 0. -1.
</event>
<event>
 4    1  0.1699921E-001  0.1250000E+03  0.7546771E-02  0.1126479E+00
        -11   -1    0    0    0    0  0.00000000000E+00  0.00000000000E+00  0.12500000000E+03  0.12500000000E+03  0.00000000000E+00 0. -1.
         11   -1    0    0    0    0 -0.00000000000E+00 -0.00000000000E+00 -0.12500000000E+03  0.12500000000E+03  0.00000000000E+00 0.  1.
         24    1    1    2    0    0 -0.69710789634E+02  0.26577321677E+02 -0.59931926606E+02  0.12500000000E+03  0.80419002446E+02 0.  0.
        -24    1    1    2    0    0  0.69710789634E+02 -0.26577321677E+02  0.59931926606E+02  0.12500000000E+03  0.80419002446E+02 0.  0.
</event>
<event>
 4    1  0.1699921E-001  0.1250000E+03  0.7546771E-02  0.1126479E+00
        -11   -1    0    0    0    0  0.00000000000E+00  0.00000000000E+00  0.12500000000E+03  0.12500000000E+03  0.00000000000E+00 0.  1.
         11   -1    0    0    0    0 -0.00000000000E+00 -0.00000000000E+00 -0.12500000000E+03  0.12500000000E+03  0.00000000000E+00 0. -1.
         24    1    1    2    0    0 -0.20271278025E+02  0.34220095870E+02  0.87039326580E+02  0.12500000000E+03  0.80419002446E+02 0.  1.
        -24    1    1    2    0    0  0.20271278025E+02 -0.34220095870E+02 -0.87039326580E+02  0.12500000000E+03  0.80419002446E+02 0. -1.
</event>
<event>
 4    1  0.1699921E-001  0.1250000E+03  0.7546771E-02  0.1126479E+00
        -11   -1    0    0    0    0  0.00000000000E+00  0.00000000000E+00  0.12500000000E+03  0.12500000000E+03  0.00000000000E+00 0.  1.
         11   -1    0    0    0    0 -0.00000000000E+00 -0.00000000000E+00 -0.12500000000E+03  0.12500000000E+03  0.00000000000E+00 0. -1.
         24    1    1    2    0    0  0.31923551609E+02  0.87518043958E+01  0.89789068478E+02  0.12500000000E+03  0.80419002446E+02 0.  1.
        -24    1    1    2    0    0 -0.31923551609E+02 -0.87518043958E+01 -0.89789068478E+02  0.12500000000E+03  0.80419002446E+02 0. -1.
</event>
<event>
 4    1  0.1699921E-001  0.1250000E+03  0.7546771E-02  0.1126479E+00
        -11   -1    0    0    0    0  0.00000000000E+00  0.00000000000E+00  0.12500000000E+03  0.12500000000E+03  0.00000000000E+00 0.  1.
         11   -1    0    0    0    0 -0.00000000000E+00 -0.00000000000E+00 -0.12500000000E+03  0.12500000000E+03  0.00000000000E+00 0. -1.
         24    1    1    2    0    0 -0.75732225459E+02  0.58340335156E+02  0.43381293859E+01  0.12500000000E+03  0.80419002446E+02 0.  1.
        -24    1    1    2    0    0  0.75732225459E+02 -0.58340335156E+02 -0.43381293859E+01  0.12500000000E+03  0.80419002446E+02 0. -1.
</event>
<event>
 4    1  0.1699921E-001  0.1250000E+03  0.7546771E-02  0.1126479E+00
        -11   -1    0    0    0    0  0.00000000000E+00  0.00000000000E+00  0.12500000000E+03  0.12500000000E+03  0.00000000000E+00 0.  1.
         11   -1    0    0    0    0 -0.00000000000E+00 -0.00000000000E+00 -0.12500000000E+03  0.12500000000E+03  0.00000000000E+00 0. -1.
         24    1    1    2    0    0  0.76018957264E+01  0.26301651082E+02  0.91696337862E+02  0.12500000000E+03  0.80419002446E+02 0.  1.
        -24    1    1    2    0    0 -0.76018957264E+01 -0.26301651082E+02 -0.91696337862E+02  0.12500000000E+03  0.80419002446E+02 0. -1.
</event>
<event>
 4    1  0.1699921E-001  0.1250000E+03  0.7546771E-02  0.1126479E+00
        -11   -1    0    0    0    0  0.00000000000E+00  0.00000000000E+00  0.12500000000E+03  0.12500000000E+03  0.00000000000E+00 0.  1.
         11   -1    0    0    0    0 -0.00000000000E+00 -0.00000000000E+00 -0.12500000000E+03  0.12500000000E+03  0.00000000000E+00 0. -1.
         24    1    1    2    0    0  0.26919655479E+02  0.70289744865E+02  0.59097106201E+02  0.12500000000E+03  0.80419002446E+02 0.  1.
        -24    1    1    2    0    0 -0.26919655479E+02 -0.70289744865E+02 -0.59097106201E+02  0.12500000000E+03  0.80419002446E+02 0. -1.
</event>
<event>
 4    1  0.1699921E-001  0.1250000E+03  0.7546771E-02  0.1126479E+00
        -11   -1    0    0    0    0  0.00000000000E+00  0.00000000000E+00  0.12500000000E+03  0.12500000000E+03  0.00000000000E+00 0.  1.
         11   -1    0    0    0    0 -0.00000000000E+00 -0.00000000000E+00 -0.12500000000E+03  0.12500000000E+03  0.00000000000E+00 0. -1.
         24    1    1    2    0    0 -0.40805346315E+02  0.22729832763E+02  0.83522825984E+02  0.12500000000E+03  0.80419002446E+02 0.  1.
        -24    1    1    2    0    0  0.40805346315E+02 -0.22729832763E+02 -0.83522825984E+02  0.12500000000E+03  0.80419002446E+02 0. -1.
</event>
<event>
 4    1  0.1699921E-001  0.1250000E+03  0.7546771E-02  0.1126479E+00
        -11   -1    0    0    0    0  0.00000000000E+00  0.00000000000E+00  0.12500000000E+03  0.12500000000E+03  0.00000000000E+00 0.  1.
         11   -1    0    0    0    0 -0.00000000000E+00 -0.00000000000E+00 -0.12500000000E+03  0.12500000000E+03  0.00000000000E+00 0. -1.
         24    1    1    2    0    0  0.46238798612E+02  0.54857268717E+02  0.63328016055E+02  0.12500000000E+03  0.80419002446E+02 0.  1.
        -24    1    1    2    0    0 -0.46238798612E+02 -0.54857268717E+02 -0.63328016055E+02  0.12500000000E+03  0.80419002446E+02 0. -1.
</event>
<event>
 4    1  0.1699921E-001  0.1250000E+03  0.7546771E-02  0.1126479E+00
        -11   -1    0    0    0    0  0.00000000000E+00  0.00000000000E+00  0.12500000000E+03  0.12500000000E+03  0.00000000000E+00 0.  1.
         11   -1    0    0    0    0 -0.00000000000E+00 -0.00000000000E+00 -0.12500000000E+03  0.12500000000E+03  0.00000000000E+00 0. -1.
         24    1    1    2    0    0  0.31762001700E+02 -0.93817944247E+01  0.89782744595E+02  0.12500000000E+03  0.80419002446E+02 0.  1.
        -24    1    1    2    0    0 -0.31762001700E+02  0.93817944247E+01 -0.89782744595E+02  0.12500000000E+03  0.80419002446E+02 0. -1.
</event>
<event>
 4    1  0.1699921E-001  0.1250000E+03  0.7546771E-02  0.1126479E+00
        -11   -1    0    0    0    0  0.00000000000E+00  0.00000000000E+00  0.12500000000E+03  0.12500000000E+03  0.00000000000E+00 0.  1.
         11   -1    0    0    0    0 -0.00000000000E+00 -0.00000000000E+00 -0.12500000000E+03  0.12500000000E+03  0.00000000000E+00 0. -1.
         24    1    1    2    0    0 -0.16186503325E+02  0.13427034242E+02  0.93356820357E+02  0.12500000000E+03  0.80419002446E+02 0.  1.
        -24    1    1    2    0    0  0.16186503325E+02 -0.13427034242E+02 -0.93356820357E+02  0.12500000000E+03  0.80419002446E+02 0. -1.
</event>
<event>
 4    1  0.1699921E-001  0.1250000E+03  0.7546771E-02  0.1126479E+00
        -11   -1    0    0    0    0  0.00000000000E+00  0.00000000000E+00  0.12500000000E+03  0.12500000000E+03  0.00000000000E+00 0.  1.
         11   -1    0    0    0    0 -0.00000000000E+00 -0.00000000000E+00 -0.12500000000E+03  0.12500000000E+03  0.00000000000E+00 0. -1.
         24    1    1    2    0    0 -0.28500922800E+02  0.43239424415E+02  0.80472564402E+02  0.12500000000E+03  0.80419002446E+02 0.  1.
        -24    1    1    2    0    0  0.28500922800E+02 -0.43239424415E+02 -0.80472564402E+02  0.12500000000E+03  0.80419002446E+02 0. -1.
</event>
<event>
 4    1  0.1699921E-001  0.1250000E+03  0.7546771E-02  0.1126479E+00
        -11   -1    0    0    0    0  0.00000000000E+00  0.00000000000E+00  0.12500000000E+03  0.12500000000E+03  0.00000000000E+00 0.  1.
         11   -1    0    0    0    0 -0.00000000000E+00 -0.00000000000E+00 -0.12500000000E+03  0.12500000000E+03  0.00000000000E+00 0. -1.
         24    1    1    2    0    0 -0.24456829643E+02 -0.28753802362E+02  0.87936718037E+02  0.12500000000E+03  0.80419002446E+02 0.  1.
        -24    1    1    2    0    0  0.24456829643E+02  0.28753802362E+02 -0.87936718037E+02  0.12500000000E+03  0.80419002446E+02 0. -1.
</event>
<event>
 4    1  0.1699921E-001  0.1250000E+03  0.7546771E-02  0.1126479E+00
        -11   -1    0    0    0    0  0.00000000000E+00  0.00000000000E+00  0.12500000000E+03  0.12500000000E+03  0.00000000000E+00 0.  1.
         11   -1    0    0    0    0 -0.00000000000E+00 -0.00000000000E+00 -0.12500000000E+03  0.12500000000E+03  0.00000000000E+00 0. -1.
         24    1    1    2    0    0 -0.26125808420E+02  0.82651905239E+02  0.40544897834E+02  0.12500000000E+03  0.80419002446E+02 0.  1.
        -24    1    1    2    0    0  0.26125808420E+02 -0.82651905239E+02 -0.40544897834E+02  0.12500000000E+03  0.80419002446E+02 0. -1.
</event>
<event>
 4    1  0.1699921E-001  0.1250000E+03  0.7546771E-02  0.1126479E+00
        -11   -1    0    0    0    0  0.00000000000E+00  0.00000000000E+00  0.12500000000E+03  0.12500000000E+03  0.00000000000E+00 0.  1.
         11   -1    0    0    0    0 -0.00000000000E+00 -0.00000000000E+00 -0.12500000000E+03  0.12500000000E+03  0.00000000000E+00 0. -1.
         24    1    1    2    0    0 -0.15316329613E+02  0.42265153148E+02  0.84479884720E+02  0.12500000000E+03  0.80419002446E+02 0.  1.
        -24    1    1    2    0    0  0.15316329613E+02 -0.42265153148E+02 -0.84479884720E+02  0.12500000000E+03  0.80419002446E+02 0. -1.
</event>
<event>
 4    1  0.1699921E-001  0.1250000E+03  0.7546771E-02  0.1126479E+00
        -11   -1    0    0    0    0  0.00000000000E+00  0.00000000000E+00  0.12500000000E+03  0.12500000000E+03  0.00000000000E+00 0.  1.
         11   -1    0    0    0    0 -0.00000000000E+00 -0.00000000000E+00 -0.12500000000E+03  0.12500000000E+03  0.00000000000E+00 0. -1.
         24    1    1    2    0    0  0.28006549721E+02 -0.58592439544E+02  0.70287575336E+02  0.12500000000E+03  0.80419002446E+02 0.  1.
        -24    1    1    2    0    0 -0.28006549721E+02  0.58592439544E+02 -0.70287575336E+02  0.12500000000E+03  0.80419002446E+02 0. -1.
</event>
<event>
 4    1  0.1699921E-001  0.1250000E+03  0.7546771E-02  0.1126479E+00
        -11   -1    0    0    0    0  0.00000000000E+00  0.00000000000E+00  0.12500000000E+03  0.12500000000E+03  0.00000000000E+00 0.  1.
         11   -1    0    0    0    0 -0.00000000000E+00 -0.00000000000E+00 -0.12500000000E+03  0.12500000000E+03  0.00000000000E+00 0. -1.
         24    1    1    2    0    0 -0.59652862703E+02  0.93526379722E+01  0.74241822310E+02  0.12500000000E+03  0.80419002446E+02 0.  1.
        -24    1    1    2    0    0  0.59652862703E+02 -0.93526379722E+01 -0.74241822310E+02  0.12500000000E+03  0.80419002446E+02 0. -1.
</event>
<event>
 4    1  0.1699921E-001  0.1250000E+03  0.7546771E-02  0.1126479E+00
        -11   -1    0    0    0    0  0.00000000000E+00  0.00000000000E+00  0.12500000000E+03  0.12500000000E+03  0.00000000000E+00 0.  1.
         11   -1    0    0    0    0 -0.00000000000E+00 -0.00000000000E+00 -0.12500000000E+03  0.12500000000E+03  0.00000000000E+00 0. -1.
         24    1    1    2    0    0 -0.92666308130E+01  0.75132314430E+02  0.58541002104E+02  0.12500000000E+03  0.80419002446E+02 0.  1.
        -24    1    1    2    0    0  0.92666308130E+01 -0.75132314430E+02 -0.58541002104E+02  0.12500000000E+03  0.80419002446E+02 0. -1.
</event>
<event>
 4    1  0.1699921E-001  0.1250000E+03  0.7546771E-02  0.1126479E+00
        -11   -1    0    0    0    0  0.00000000000E+00  0.00000000000E+00  0.12500000000E+03  0.12500000000E+03  0.00000000000E+00 0.  1.
         11   -1    0    0    0    0 -0.00000000000E+00 -0.00000000000E+00 -0.12500000000E+03  0.12500000000E+03  0.00000000000E+00 0. -1.
         24    1    1    2    0    0 -0.26495736278E+02 -0.33105636796E+02  0.85789141604E+02  0.12500000000E+03  0.80419002446E+02 0.  1.
        -24    1    1    2    0    0  0.26495736278E+02  0.33105636796E+02 -0.85789141604E+02  0.12500000000E+03  0.80419002446E+02 0. -1.
</event>
<event>
 4    1  0.1699921E-001  0.1250000E+03  0.7546771E-02  0.1126479E+00
        -11   -1    0    0    0    0  0.00000000000E+00  0.00000000000E+00  0.12500000000E+03  0.12500000000E+03  0.00000000000E+00 0.  1.
         11   -1    0    0    0    0 -0.00000000000E+00 -0.00000000000E+00 -0.12500000000E+03  0.12500000000E+03  0.00000000000E+00 0. -1.
         24    1    1    2    0    0 -0.41231418446E+02 -0.36128420556E+02  0.78437818727E+02  0.12500000000E+03  0.80419002446E+02 0.  1.
        -24    1    1    2    0    0  0.41231418446E+02  0.36128420556E+02 -0.78437818727E+02  0.12500000000E+03  0.80419002446E+02 0. -1.
</event>
<event>
 4    1  0.1699921E-001  0.1250000E+03  0.7546771E-02  0.1126479E+00
        -11   -1    0    0    0    0  0.00000000000E+00  0.00000000000E+00  0.12500000000E+03  0.12500000000E+03  0.00000000000E+00 0.  1.
         11   -1    0    0    0    0 -0.00000000000E+00 -0.00000000000E+00 -0.12500000000E+03  0.12500000000E+03  0.00000000000E+00 0. -1.
         24    1    1    2    0    0 -0.11946033011E+02  0.48601066901E+02  0.81566001722E+02  0.12500000000E+03  0.80419002446E+02 0.  1.
        -24    1    1    2    0    0  0.11946033011E+02 -0.48601066901E+02 -0.81566001722E+02  0.12500000000E+03  0.80419002446E+02 0. -1.
</event>
<event>
 4    1  0.1699921E-001  0.1250000E+03  0.7546771E-02  0.1126479E+00
        -11   -1    0    0    0    0  0.00000000000E+00  0.00000000000E+00  0.12500000000E+03  0.12500000000E+03  0.00000000000E+00 0.  1.
         11   -1    0    0    0    0 -0.00000000000E+00 -0.00000000000E+00 -0.12500000000E+03  0.12500000000E+03  0.00000000000E+00 0. -1.
         24    1    1    2    0    0  0.26418475941E+02 -0.21452672442E+02  0.89440656414E+02  0.12500000000E+03  0.80419002446E+02 0.  1.
        -24    1    1    2    0    0 -0.26418475941E+02  0.21452672442E+02 -0.89440656414E+02  0.12500000000E+03  0.80419002446E+02 0. -1.
</event>
<event>
 4    1  0.1699921E-001  0.1250000E+03  0.7546771E-02  0.1126479E+00
        -11   -1    0    0    0    0  0.00000000000E+00  0.00000000000E+00  0.12500000000E+03  0.12500000000E+03  0.00000000000E+00 0.  1.
         11   -1    0    0    0    0 -0.00000000000E+00 -0.00000000000E+00 -0.12500000000E+03  0.12500000000E+03  0.00000000000E+00 0. -1.
         24    1    1    2    0    0  0.15440971059E+02 -0.40217974075E+02  0.85451009472E+02  0.12500000000E+03  0.80419002446E+02 0.  1.
        -24    1    1    2    0    0 -0.15440971059E+02  0.40217974075E+02 -0.85451009472E+02  0.12500000000E+03  0.80419002446E+02 0. -1.
</event>
<event>
 4    1  0.1699921E-001  0.1250000E+03  0.7546771E-02  0.1126479E+00
        -11   -1    0    0    0    0  0.00000000000E+00  0.00000000000E+00  0.12500000000E+03  0.12500000000E+03  0.00000000000E+00 0.  1.
         11   -1    0    0    0    0 -0.00000000000E+00 -0.00000000000E+00 -0.12500000000E+03  0.12500000000E+03  0.00000000000E+00 0. -1.
         24    1    1    2    0    0 -0.65890735767E+02 -0.37777549916E+02  0.58215562421E+02  0.12500000000E+03  0.80419002446E+02 0. -1.
        -24    1    1    2    0    0  0.65890735767E+02  0.37777549916E+02 -0.58215562421E+02  0.12500000000E+03  0.80419002446E+02 0.  1.
</event>
<event>
 4    1  0.1699921E-001  0.1250000E+03  0.7546771E-02  0.1126479E+00
        -11   -1    0    0    0    0  0.00000000000E+00  0.00000000000E+00  0.12500000000E+03  0.12500000000E+03  0.00000000000E+00 0.  1.
         11   -1    0    0    0    0 -0.00000000000E+00 -0.00000000000E+00 -0.12500000000E+03  0.12500000000E+03  0.00000000000E+00 0. -1.
         24    1    1    2    0    0 -0.20956499724E+01 -0.40217260456E+02  0.86809931795E+02  0.12500000000E+03  0.80419002446E+02 0.  1.
        -24    1    1    2    0    0  0.20956499724E+01  0.40217260456E+02 -0.86809931795E+02  0.12500000000E+03  0.80419002446E+02 0. -1.
</event>
<event>
 4    1  0.1699921E-001  0.1250000E+03  0.7546771E-02  0.1126479E+00
        -11   -1    0    0    0    0  0.00000000000E+00  0.00000000000E+00  0.12500000000E+03  0.12500000000E+03  0.00000000000E+00 0.  1.
         11   -1    0    0    0    0 -0.00000000000E+00 -0.00000000000E+00 -0.12500000000E+03  0.12500000000E+03  0.00000000000E+00 0. -1.
         24    1    1    2    0    0  0.29874471652E+02  0.57629558750E+02  0.70314535819E+02  0.12500000000E+03  0.80419002446E+02 0.  1.
        -24    1    1    2    0    0 -0.29874471652E+02 -0.57629558750E+02 -0.70314535819E+02  0.12500000000E+03  0.80419002446E+02 0. -1.
</event>
<event>
 4    1  0.1699921E-001  0.1250000E+03  0.7546771E-02  0.1126479E+00
        -11   -1    0    0    0    0  0.00000000000E+00  0.00000000000E+00  0.12500000000E+03  0.12500000000E+03  0.00000000000E+00 0.  1.
         11   -1    0    0    0    0 -0.00000000000E+00 -0.00000000000E+00 -0.12500000000E+03  0.12500000000E+03  0.00000000000E+00 0. -1.
         24    1    1    2    0    0 -0.65250709996E+02  0.58074597406E+02 -0.39082861037E+02  0.12500000000E+03  0.80419002446E+02 0.  0.
        -24    1    1    2    0    0  0.65250709996E+02 -0.58074597406E+02  0.39082861037E+02  0.12500000000E+03  0.80419002446E+02 0. -1.
</event>
<event>
 4    1  0.1699921E-001  0.1250000E+03  0.7546771E-02  0.1126479E+00
        -11   -1    0    0    0    0  0.00000000000E+00  0.00000000000E+00  0.12500000000E+03  0.12500000000E+03  0.00000000000E+00 0.  1.
         11   -1    0    0    0    0 -0.00000000000E+00 -0.00000000000E+00 -0.12500000000E+03  0.12500000000E+03  0.00000000000E+00 0. -1.
         24    1    1    2    0    0 -0.59339444191E+02  0.30432148601E+02  0.68633073225E+02  0.12500000000E+03  0.80419002446E+02 0.  1.
        -24    1    1    2    0    0  0.59339444191E+02 -0.30432148601E+02 -0.68633073225E+02  0.12500000000E+03  0.80419002446E+02 0. -1.
</event>
<event>
 4    1  0.1699921E-001  0.1250000E+03  0.7546771E-02  0.1126479E+00
        -11   -1    0    0    0    0  0.00000000000E+00  0.00000000000E+00  0.12500000000E+03  0.12500000000E+03  0.00000000000E+00 0.  1.
         11   -1    0    0    0    0 -0.00000000000E+00 -0.00000000000E+00 -0.12500000000E+03  0.12500000000E+03  0.00000000000E+00 0. -1.
         24    1    1    2    0    0 -0.60121400210E+02 -0.45870989963E+02  0.58643444324E+02  0.12500000000E+03  0.80419002446E+02 0.  1.
        -24    1    1    2    0    0  0.60121400210E+02  0.45870989963E+02 -0.58643444324E+02  0.12500000000E+03  0.80419002446E+02 0. -1.
</event>
