<event>
 4    1  0.1653896E-001  0.1250000E+03  0.7546771E-02  0.1126479E+00
        -11   -1    0    0    0    0  0.00000000000E+00  0.00000000000E+00  0.12500000000E+03  0.12500000000E+03  0.00000000000E+00 0.  1.
         11   -1    0    0    0    0 -0.00000000000E+00 -0.00000000000E+00 -0.12500000000E+03  0.12500000000E+03  0.00000000000E+00 0. -1.
         24    1    1    2    0    0  0.71694025455E+01  0.15628101687E+02  0.94138972538E+02  0.12500000000E+03  0.80419002446E+02 0.  1.
        -24    1    1    2    0    0 -0.71694025455E+01 -0.15628101687E+02 -0.94138972538E+02  0.12500000000E+03  0.80419002446E+02 0. -1.
</event>
<event>
 4    1  0.1653896E-001  0.1250000E+03  0.7546771E-02  0.1126479E+00
        -11   -1    0    0    0    0  0.00000000000E+00  0.00000000000E+00  0.12500000000E+03  0.12500000000E+03  0.00000000000E+00 0.  1.
         11   -1    0    0    0    0 -0.00000000000E+00 -0.00000000000E+00 -0.12500000000E+03  0.12500000000E+03  0.00000000000E+00 0. -1.
         24    1    1    2    0    0 -0.17356361564E+02 -0.11901819632E+00  0.94109120671E+02  0.12500000000E+03  0.80419002446E+02 0.  1.
        -24    1    1    2    0    0  0.17356361564E+02  0.11901819632E+00 -0.94109120671E+02  0.12500000000E+03  0.80419002446E+02 0. -1.
</event>
<event>
 4    1  0.1653896E-001  0.1250000E+03  0.7546771E-02  0.1126479E+00
        -11   -1    0    0    0    0  0.00000000000E+00  0.00000000000E+00  0.12500000000E+03  0.12500000000E+03  0.00000000000E+00 0.  1.
         11   -1    0    0    0    0 -0.00000000000E+00 -0.00000000000E+00 -0.12500000000E+03  0.12500000000E+03  0.00000000000E+00 0. -1.
         24    1    1    2    0    0  0.30091202521E+02  0.27037094735E+02  0.86725423520E+02  0.12500000000E+03  0.80419002446E+02 0.  0.
        -24    1    1    2    0    0 -0.30091202521E+02 -0.27037094735E+02 -0.86725423520E+02  0.12500000000E+03  0.80419002446E+02 0.  0.
</event>
<event>
 4    1  0.1653896E-001  0.1250000E+03  0.7546771E-02  0.1126479E+00
        -11   -1    0    0    0    0  0.00000000000E+00  0.00000000000E+00  0.12500000000E+03  0.12500000000E+03  0.00000000000E+00 0.  1.
         11   -1    0    0    0    0 -0.00000000000E+00 -0.00000000000E+00 -0.12500000000E+03  0.12500000000E+03  0.00000000000E+00 0. -1.
         24    1    1    2    0    0  0.59372173141E+01  0.29188558023E+02  0.90942627941E+02  0.12500000000E+03  0.80419002446E+02 0.  0.
        -24    1    1    2    0    0 -0.59372173141E+01 -0.29188558023E+02 -0.90942627941E+02  0.12500000000E+03  0.80419002446E+02 0.  1.
</event>
<event>
 4    1  0.1653896E-001  0.1250000E+03  0.7546771E-02  0.1126479E+00
        -11   -1    0    0    0    0  0.00000000000E+00  0.00000000000E+00  0.12500000000E+03  0.12500000000E+03  0.00000000000E+00 0.  1.
         11   -1    0    0    0    0 -0.00000000000E+00 -0.00000000000E+00 -0.12500000000E+03  0.12500000000E+03  0.00000000000E+00 0. -1.
         24    1    1    2    0    0 -0.56402686274E+01 -0.45405316293E+02  0.84049560783E+02  0.12500000000E+03  0.80419002446E+02 0.  1.
        -24    1    1    2    0    0  0.56402686274E+01  0.45405316293E+02 -0.84049560783E+02  0.12500000000E+03  0.80419002446E+02 0. -1.
</event>
<event>
 4    1  0.1653896E-001  0.1250000E+03  0.7546771E-02  0.1126479E+00
        -11   -1    0    0    0    0  0.00000000000E+00  0.00000000000E+00  0.12500000000E+03  0.12500000000E+03  0.00000000000E+00 0.  1.
         11   -1    0    0    0    0 -0.00000000000E+00 -0.00000000000E+00 -0.12500000000E+03  0.12500000000E+03  0.00000000000E+00 0. -1.
         24    1    1    2    0    0  0.96804727306E+01 -0.29786729976E+02  0.90425788416E+02  0.12500000000E+03  0.80419002446E+02 0.  1.
        -24    1    1    2    0    0 -0.96804727306E+01  0.29786729976E+02 -0.90425788416E+02  0.12500000000E+03  0.80419002446E+02 0. -1.
</event>
<event>
 4    1  0.1653896E-001  0.1250000E+03  0.7546771E-02  0.1126479E+00
        -11   -1    0    0    0    0  0.00000000000E+00  0.00000000000E+00  0.12500000000E+03  0.12500000000E+03  0.00000000000E+00 0.  1.
         11   -1    0    0    0    0 -0.00000000000E+00 -0.00000000000E+00 -0.12500000000E+03  0.12500000000E+03  0.00000000000E+00 0. -1.
         24    1    1    2    0    0  0.50402930225E+02 -0.49480257737E+02  0.64568047552E+02  0.12500000000E+03  0.80419002446E+02 0.  1.
        -24    1    1    2    0    0 -0.50402930225E+02  0.49480257737E+02 -0.64568047552E+02  0.12500000000E+03  0.80419002446E+02 0. -1.
</event>
<event>
 4    1  0.1653896E-001  0.1250000E+03  0.7546771E-02  0.1126479E+00
        -11   -1    0    0    0    0  0.00000000000E+00  0.00000000000E+00  0.12500000000E+03  0.12500000000E+03  0.00000000000E+00 0.  1.
         11   -1    0    0    0    0 -0.00000000000E+00 -0.00000000000E+00 -0.12500000000E+03  0.12500000000E+03  0.00000000000E+00 0. -1.
         24    1    1    2    0    0  0.42021234652E+02 -0.39904497486E+02  0.76155308182E+02  0.12500000000E+03  0.80419002446E+02 0.  1.
        -24    1    1    2    0    0 -0.42021234652E+02  0.39904497486E+02 -0.76155308182E+02  0.12500000000E+03  0.80419002446E+02 0.  1.
</event>
<event>
 4    1  0.1653896E-001  0.1250000E+03  0.7546771E-02  0.1126479E+00
        -11   -1    0    0    0    0  0.00000000000E+00  0.00000000000E+00  0.12500000000E+03  0.12500000000E+03  0.00000000000E+00 0.  1.
         11   -1    0    0    0    0 -0.00000000000E+00 -0.00000000000E+00 -0.12500000000E+03  0.12500000000E+03  0.00000000000E+00 0. -1.
         24    1    1    2    0    0  0.30520983999E+02 -0.88750559336E+02  0.18697374119E+02  0.12500000000E+03  0.80419002446E+02 0.  1.
        -24    1    1    2    0    0 -0.30520983999E+02  0.88750559336E+02 -0.18697374119E+02  0.12500000000E+03  0.80419002446E+02 0. -1.
</event>
<event>
 4    1  0.1653896E-001  0.1250000E+03  0.7546771E-02  0.1126479E+00
        -11   -1    0    0    0    0  0.00000000000E+00  0.00000000000E+00  0.12500000000E+03  0.12500000000E+03  0.00000000000E+00 0.  1.
         11   -1    0    0    0    0 -0.00000000000E+00 -0.00000000000E+00 -0.12500000000E+03  0.12500000000E+03  0.00000000000E+00 0. -1.
         24    1    1    2    0    0  0.24164026612E+01  0.81627785618E+02 -0.49888371980E+02  0.12500000000E+03  0.80419002446E+02 0.  0.
        -24    1    1    2    0    0 -0.24164026612E+01 -0.81627785618E+02  0.49888371980E+02  0.12500000000E+03  0.80419002446E+02 0.  0.
</event>
<event>
 4    1  0.1653896E-001  0.1250000E+03  0.7546771E-02  0.1126479E+00
        -11   -1    0    0    0    0  0.00000000000E+00  0.00000000000E+00  0.12500000000E+03  0.12500000000E+03  0.00000000000E+00 0.  1.
         11   -1    0    0    0    0 -0.00000000000E+00 -0.00000000000E+00 -0.12500000000E+03  0.12500000000E+03  0.00000000000E+00 0. -1.
         24    1    1    2    0    0  0.19256423900E+02  0.34282017464E+02  0.87245157245E+02  0.12500000000E+03  0.80419002446E+02 0.  1.
        -24    1    1    2    0    0 -0.19256423900E+02 -0.34282017464E+02 -0.87245157245E+02  0.12500000000E+03  0.80419002446E+02 0. -1.
</event>
<event>
 4    1  0.1653896E-001  0.1250000E+03  0.7546771E-02  0.1126479E+00
        -11   -1    0    0    0    0  0.00000000000E+00  0.00000000000E+00  0.12500000000E+03  0.12500000000E+03  0.00000000000E+00 0.  1.
         11   -1    0    0    0    0 -0.00000000000E+00 -0.00000000000E+00 -0.12500000000E+03  0.12500000000E+03  0.00000000000E+00 0. -1.
         24    1    1    2    0    0 -0.65235251612E+02  0.48413606812E+02  0.50579330444E+02  0.12500000000E+03  0.80419002446E+02 0.  1.
        -24    1    1    2    0    0  0.65235251612E+02 -0.48413606812E+02 -0.50579330444E+02  0.12500000000E+03  0.80419002446E+02 0. -1.
</event>
<event>
 4    1  0.1653896E-001  0.1250000E+03  0.7546771E-02  0.1126479E+00
        -11   -1    0    0    0    0  0.00000000000E+00  0.00000000000E+00  0.12500000000E+03  0.12500000000E+03  0.00000000000E+00 0.  1.
         11   -1    0    0    0    0 -0.00000000000E+00 -0.00000000000E+00 -0.12500000000E+03  0.12500000000E+03  0.00000000000E+00 0. -1.
         24    1    1    2    0    0  0.63161349164E+01 -0.51011574071E+02  0.80719946705E+02  0.12500000000E+03  0.80419002446E+02 0.  1.
        -24    1    1    2    0    0 -0.63161349164E+01  0.51011574071E+02 -0.80719946705E+02  0.12500000000E+03  0.80419002446E+02 0. -1.
</event>
<event>
 4    1  0.1653896E-001  0.1250000E+03  0.7546771E-02  0.1126479E+00
        -11   -1    0    0    0    0  0.00000000000E+00  0.00000000000E+00  0.12500000000E+03  0.12500000000E+03  0.00000000000E+00 0.  1.
         11   -1    0    0    0    0 -0.00000000000E+00 -0.00000000000E+00 -0.12500000000E+03  0.12500000000E+03  0.00000000000E+00 0. -1.
         24    1    1    2    0    0 -0.38139705641E+02  0.51846381450E+02  0.70817368137E+02  0.12500000000E+03  0.80419002446E+02 0.  1.
        -24    1    1    2    0    0  0.38139705641E+02 -0.51846381450E+02 -0.70817368137E+02  0.12500000000E+03  0.80419002446E+02 0. -1.
</event>
<event>
 4    1  0.1653896E-001  0.1250000E+03  0.7546771E-02  0.1126479E+00
        -11   -1    0    0    0    0  0.00000000000E+00  0.00000000000E+00  0.12500000000E+03  0.12500000000E+03  0.00000000000E+00 0.  1.
         11   -1    0    0    0    0 -0.00000000000E+00 -0.00000000000E+00 -0.12500000000E+03  0.12500000000E+03  0.00000000000E+00 0. -1.
         24    1    1    2    0    0 -0.12524495062E+02 -0.16002433807E+02  0.93513866252E+02  0.12500000000E+03  0.80419002446E+02 0.  1.
        -24    1    1    2    0    0  0.12524495062E+02  0.16002433807E+02 -0.93513866252E+02  0.12500000000E+03  0.80419002446E+02 0. -1.
</event>
<event>
 4    1  0.1653896E-001  0.1250000E+03  0.7546771E-02  0.1126479E+00
        -11   -1    0    0    0    0  0.00000000000E+00  0.00000000000E+00  0.12500000000E+03  0.12500000000E+03  0.00000000000E+00 0.  1.
         11   -1    0    0    0    0 -0.00000000000E+00 -0.00000000000E+00 -0.12500000000E+03  0.12500000000E+03  0.00000000000E+00 0. -1.
         24    1    1    2    0    0 -0.17107643009E+02 -0.53631237184E+02  0.77387356813E+02  0.12500000000E+03  0.80419002446E+02 0.  1.
        -24    1    1    2    0    0  0.17107643009E+02  0.53631237184E+02 -0.77387356813E+02  0.12500000000E+03  0.80419002446E+02 0. -1.
</event>
<event>
 4    1  0.1653896E-001  0.1250000E+03  0.7546771E-02  0.1126479E+00
        -11   -1    0    0    0    0  0.00000000000E+00  0.00000000000E+00  0.12500000000E+03  0.12500000000E+03  0.00000000000E+00 0.  1.
         11   -1    0    0    0    0 -0.00000000000E+00 -0.00000000000E+00 -0.12500000000E+03  0.12500000000E+03  0.00000000000E+00 0. -1.
         24    1    1    2    0    0 -0.63536644344E+02 -0.26268979719E+01  0.71512084840E+02  0.12500000000E+03  0.80419002446E+02 0.  1.
        -24    1    1    2    0    0  0.63536644344E+02  0.26268979719E+01 -0.71512084840E+02  0.12500000000E+03  0.80419002446E+02 0. -1.
</event>
<event>
 4    1  0.1653896E-001  0.1250000E+03  0.7546771E-02  0.1126479E+00
        -11   -1    0    0    0    0  0.00000000000E+00  0.00000000000E+00  0.12500000000E+03  0.12500000000E+03  0.00000000000E+00 0.  1.
         11   -1    0    0    0    0 -0.00000000000E+00 -0.00000000000E+00 -0.12500000000E+03  0.12500000000E+03  0.00000000000E+00 0. -1.
         24    1    1    2    0    0 -0.19827615413E+02  0.81537199310E+02  0.46003639436E+02  0.12500000000E+03  0.80419002446E+02 0.  1.
        -24    1    1    2    0    0  0.19827615413E+02 -0.81537199310E+02 -0.46003639436E+02  0.12500000000E+03  0.80419002446E+02 0. -1.
</event>
<event>
 4    1  0.1653896E-001  0.1250000E+03  0.7546771E-02  0.1126479E+00
        -11   -1    0    0    0    0  0.00000000000E+00  0.00000000000E+00  0.12500000000E+03  0.12500000000E+03  0.00000000000E+00 0.  1.
         11   -1    0    0    0    0 -0.00000000000E+00 -0.00000000000E+00 -0.12500000000E+03  0.12500000000E+03  0.00000000000E+00 0. -1.
         24    1    1    2    0    0  0.30879475311E+02  0.37857942939E+02  0.82286196938E+02  0.12500000000E+03  0.80419002446E+02 0.  1.
        -24    1    1    2    0    0 -0.30879475311E+02 -0.37857942939E+02 -0.82286196938E+02  0.12500000000E+03  0.80419002446E+02 0. -1.
</event>
<event>
 4    1  0.1653896E-001  0.1250000E+03  0.7546771E-02  0.1126479E+00
        -11   -1    0    0    0    0  0.00000000000E+00  0.00000000000E+00  0.12500000000E+03  0.12500000000E+03  0.00000000000E+00 0.  1.
         11   -1    0    0    0    0 -0.00000000000E+00 -0.00000000000E+00 -0.12500000000E+03  0.12500000000E+03  0.00000000000E+00 0. -1.
         24    1    1    2    0    0  0.88712393642E+02 -0.35291674502E+02  0.65109884667E+01  0.12500000000E+03  0.80419002446E+02 0. -1.
        -24    1    1    2    0    0 -0.88712393642E+02  0.35291674502E+02 -0.65109884667E+01  0.12500000000E+03  0.80419002446E+02 0.  1.
</event>
<event>
 4    1  0.1653896E-001  0.1250000E+03  0.7546771E-02  0.1126479E+00
        -11   -1    0    0    0    0  0.00000000000E+00  0.00000000000E+00  0.12500000000E+03  0.12500000000E+03  0.00000000000E+00 0.  1.
         11   -1    0    0    0    0 -0.00000000000E+00 -0.00000000000E+00 -0.12500000000E+03  0.12500000000E+03  0.00000000000E+00 0. -1.
         24    1    1    2    0    0  0.14064498915E+02  0.21557432088E+02  0.92169686110E+02  0.12500000000E+03  0.80419002446E+02 0.  1.
        -24    1    1    2    0    0 -0.14064498915E+02 -0.21557432088E+02 -0.92169686110E+02  0.12500000000E+03  0.80419002446E+02 0. -1.
</event>
<event>
 4    1  0.1653896E-001  0.1250000E+03  0.7546771E-02  0.1126479E+00
        -11   -1    0    0    0    0  0.00000000000E+00  0.00000000000E+00  0.12500000000E+03  0.12500000000E+03  0.00000000000E+00 0.  1.
         11   -1    0    0    0    0 -0.00000000000E+00 -0.00000000000E+00 -0.12500000000E+03  0.12500000000E+03  0.00000000000E+00 0. -1.
         24    1    1    2    0    0  0.18571599622E+02  0.40489603259E+02  0.84696350341E+02  0.12500000000E+03  0.80419002446E+02 0.  1.
        -24    1    1    2    0    0 -0.18571599622E+02 -0.40489603259E+02 -0.84696350341E+02  0.12500000000E+03  0.80419002446E+02 0. -1.
</event>
<event>
 4    1  0.1653896E-001  0.1250000E+03  0.7546771E-02  0.1126479E+00
        -11   -1    0    0    0    0  0.00000000000E+00  0.00000000000E+00  0.12500000000E+03  0.12500000000E+03  0.00000000000E+00 0.  1.
         11   -1    0    0    0    0 -0.00000000000E+00 -0.00000000000E+00 -0.12500000000E+03  0.12500000000E+03  0.00000000000E+00 0. -1.
         24    1    1    2    0    0 -0.80544109770E+02 -0.80288558804E+01  0.51048681670E+02  0.12500000000E+03  0.80419002446E+02 0.  1.
        -24    1    1    2    0    0  0.80544109770E+02  0.80288558804E+01 -0.51048681670E+02  0.12500000000E+03  0.80419002446E+02 0. -1.
</event>
<event>
 4    1  0.1653896E-001  0.1250000E+03  0.7546771E-02  0.1126479E+00
        -11   -1    0    0    0    0  0.00000000000E+00  0.00000000000E+00  0.12500000000E+03  0.12500000000E+03  0.00000000000E+00 0.  1.
         11   -1    0    0    0    0 -0.00000000000E+00 -0.00000000000E+00 -0.12500000000E+03  0.12500000000E+03  0.00000000000E+00 0. -1.
         24    1    1    2    0    0  0.30115636335E+02  0.75505718953E+02  0.50494741302E+02  0.12500000000E+03  0.80419002446E+02 0.  1.
        -24    1    1    2    0    0 -0.30115636335E+02 -0.75505718953E+02 -0.50494741302E+02  0.12500000000E+03  0.80419002446E+02 0. -1.
</event>
<event>
 4    1  0.1653896E-001  0.1250000E+03  0.7546771E-02  0.1126479E+00
        -11   -1    0    0    0    0  0.00000000000E+00  0.00000000000E+00  0.12500000000E+03  0.12500000000E+03  0.00000000000E+00 0.  1.
         11   -1    0    0    0    0 -0.00000000000E+00 -0.00000000000E+00 -0.12500000000E+03  0.12500000000E+03  0.00000000000E+00 0. -1.
         24    1    1    2    0    0 -0.68097030017E+02  0.11161530180E+02  0.66302328711E+02  0.12500000000E+03  0.80419002446E+02 0.  1.
        -24    1    1    2    0    0  0.68097030017E+02 -0.11161530180E+02 -0.66302328711E+02  0.12500000000E+03  0.80419002446E+02 0. -1.
</event>
<event>
 4    1  0.1653896E-001  0.1250000E+03  0.7546771E-02  0.1126479E+00
        -11   -1    0    0    0    0  0.00000000000E+00  0.00000000000E+00  0.12500000000E+03  0.12500000000E+03  0.00000000000E+00 0.  1.
         11   -1    0    0    0    0 -0.00000000000E+00 -0.00000000000E+00 -0.12500000000E+03  0.12500000000E+03  0.00000000000E+00 0. -1.
         24    1    1    2    0    0  0.36157124620E+02  0.55163512453E+01  0.88430855779E+02  0.12500000000E+03  0.80419002446E+02 0.  1.
        -24    1    1    2    0    0 -0.36157124620E+02 -0.55163512453E+01 -0.88430855779E+02  0.12500000000E+03  0.80419002446E+02 0. -1.
</event>
<event>
 4    1  0.1653896E-001  0.1250000E+03  0.7546771E-02  0.1126479E+00
        -11   -1    0    0    0    0  0.00000000000E+00  0.00000000000E+00  0.12500000000E+03  0.12500000000E+03  0.00000000000E+00 0.  1.
         11   -1    0    0    0    0 -0.00000000000E+00 -0.00000000000E+00 -0.12500000000E+03  0.12500000000E+03  0.00000000000E+00 0. -1.
         24    1    1    2    0    0 -0.12363667388E+02  0.79503968379E+01  0.94560641730E+02  0.12500000000E+03  0.80419002446E+02 0.  1.
        -24    1    1    2    0    0  0.12363667388E+02 -0.79503968379E+01 -0.94560641730E+02  0.12500000000E+03  0.80419002446E+02 0. -1.
</event>
<event>
 4    1  0.1653896E-001  0.1250000E+03  0.7546771E-02  0.1126479E+00
        -11   -1    0    0    0    0  0.00000000000E+00  0.00000000000E+00  0.12500000000E+03  0.12500000000E+03  0.00000000000E+00 0.  1.
         11   -1    0    0    0    0 -0.00000000000E+00 -0.00000000000E+00 -0.12500000000E+03  0.12500000000E+03  0.00000000000E+00 0. -1.
         24    1    1    2    0    0 -0.86246980779E+02 -0.26632333180E+02  0.31779886429E+02  0.12500000000E+03  0.80419002446E+02 0.  1.
        -24    1    1    2    0    0  0.86246980779E+02  0.26632333180E+02 -0.31779886429E+02  0.12500000000E+03  0.80419002446E+02 0. -1.
</event>
<event>
 4    1  0.1653896E-001  0.1250000E+03  0.7546771E-02  0.1126479E+00
        -11   -1    0    0    0    0  0.00000000000E+00  0.00000000000E+00  0.12500000000E+03  0.12500000000E+03  0.00000000000E+00 0.  1.
         11   -1    0    0    0    0 -0.00000000000E+00 -0.00000000000E+00 -0.12500000000E+03  0.12500000000E+03  0.00000000000E+00 0. -1.
         24    1    1    2    0    0 -0.35316165406E+02 -0.23915754170E+02  0.85665566065E+02  0.12500000000E+03  0.80419002446E+02 0.  1.
        -24    1    1    2    0    0  0.35316165406E+02  0.23915754170E+02 -0.85665566065E+02  0.12500000000E+03  0.80419002446E+02 0. -1.
</event>
<event>
 4    1  0.1653896E-001  0.1250000E+03  0.7546771E-02  0.1126479E+00
        -11   -1    0    0    0    0  0.00000000000E+00  0.00000000000E+00  0.12500000000E+03  0.12500000000E+03  0.00000000000E+00 0.  1.
         11   -1    0    0    0    0 -0.00000000000E+00 -0.00000000000E+00 -0.12500000000E+03  0.12500000000E+03  0.00000000000E+00 0. -1.
         24    1    1    2    0    0 -0.44949469824E+02  0.33431310820E+02  0.77586575288E+02  0.12500000000E+03  0.80419002446E+02 0.  1.
        -24    1    1    2    0    0  0.44949469824E+02 -0.33431310820E+02 -0.77586575288E+02  0.12500000000E+03  0.80419002446E+02 0. -1.
</event>
<event>
 4    1  0.1653896E-001  0.1250000E+03  0.7546771E-02  0.1126479E+00
        -11   -1    0    0    0    0  0.00000000000E+00  0.00000000000E+00  0.12500000000E+03  0.12500000000E+03  0.00000000000E+00 0.  1.
         11   -1    0    0    0    0 -0.00000000000E+00 -0.00000000000E+00 -0.12500000000E+03  0.12500000000E+03  0.00000000000E+00 0. -1.
         24    1    1    2    0    0  0.47368511753E+02  0.20010025429E+02  0.80706920535E+02  0.12500000000E+03  0.80419002446E+02 0.  1.
        -24    1    1    2    0    0 -0.47368511753E+02 -0.20010025429E+02 -0.80706920535E+02  0.12500000000E+03  0.80419002446E+02 0. -1.
</event>
<event>
 4    1  0.1653896E-001  0.1250000E+03  0.7546771E-02  0.1126479E+00
        -11   -1    0    0    0    0  0.00000000000E+00  0.00000000000E+00  0.12500000000E+03  0.12500000000E+03  0.00000000000E+00 0.  1.
         11   -1    0    0    0    0 -0.00000000000E+00 -0.00000000000E+00 -0.12500000000E+03  0.12500000000E+03  0.00000000000E+00 0. -1.
         24    1    1    2    0    0 -0.78433945673E+02  0.19934167028E+02  0.51073762312E+02  0.12500000000E+03  0.80419002446E+02 0.  1.
        -24    1    1    2    0    0  0.78433945673E+02 -0.19934167028E+02 -0.51073762312E+02  0.12500000000E+03  0.80419002446E+02 0. -1.
</event>
<event>
 4    1  0.1653896E-001  0.1250000E+03  0.7546771E-02  0.1126479E+00
        -11   -1    0    0    0    0  0.00000000000E+00  0.00000000000E+00  0.12500000000E+03  0.12500000000E+03  0.00000000000E+00 0.  1.
         11   -1    0    0    0    0 -0.00000000000E+00 -0.00000000000E+00 -0.12500000000E+03  0.12500000000E+03  0.00000000000E+00 0. -1.
         24    1    1    2    0    0  0.38213937346E+02 -0.14874016951E+02  0.86465268506E+02  0.12500000000E+03  0.80419002446E+02 0.  1.
        -24    1    1    2    0    0 -0.38213937346E+02  0.14874016951E+02 -0.86465268506E+02  0.12500000000E+03  0.80419002446E+02 0. -1.
</event>
<event>
 4    1  0.1653896E-001  0.1250000E+03  0.7546771E-02  0.1126479E+00
        -11   -1    0    0    0    0  0.00000000000E+00  0.00000000000E+00  0.12500000000E+03  0.12500000000E+03  0.00000000000E+00 0.  1.
         11   -1    0    0    0    0 -0.00000000000E+00 -0.00000000000E+00 -0.12500000000E+03  0.12500000000E+03  0.00000000000E+00 0. -1.
         24    1    1    2    0    0  0.64676595579E+02  0.19760662633E+02  0.67707002905E+02  0.12500000000E+03  0.80419002446E+02 0.  0.
        -24    1    1    2    0    0 -0.64676595579E+02 -0.19760662633E+02 -0.67707002905E+02  0.12500000000E+03  0.80419002446E+02 0.  0.
</event>
<event>
 4    1  0.1653896E-001  0.1250000E+03  0.7546771E-02  0.1126479E+00
        -11   -1    0    0    0    0  0.00000000000E+00  0.00000000000E+00  0.12500000000E+03  0.12500000000E+03  0.00000000000E+00 0.  1.
         11   -1    0    0    0    0 -0.00000000000E+00 -0.00000000000E+00 -0.12500000000E+03  0.12500000000E+03  0.00000000000E+00 0. -1.
         24    1    1    2    0    0  0.18047555865E+02 -0.47010850169E+01  0.93861438155E+02  0.12500000000E+03  0.80419002446E+02 0.  1.
        -24    1    1    2    0    0 -0.18047555865E+02  0.47010850169E+01 -0.93861438155E+02  0.12500000000E+03  0.80419002446E+02 0. -1.
</event>
<event>
 4    1  0.1653896E-001  0.1250000E+03  0.7546771E-02  0.1126479E+00
        -11   -1    0    0    0    0  0.00000000000E+00  0.00000000000E+00  0.12500000000E+03  0.12500000000E+03  0.00000000000E+00 0.  1.
         11   -1    0    0    0    0 -0.00000000000E+00 -0.00000000000E+00 -0.12500000000E+03  0.12500000000E+03  0.00000000000E+00 0. -1.
         24    1    1    2    0    0  0.22884823497E+02 -0.27618784211E+02  0.88720187432E+02  0.12500000000E+03  0.80419002446E+02 0.  1.
        -24    1    1    2    0    0 -0.22884823497E+02  0.27618784211E+02 -0.88720187432E+02  0.12500000000E+03  0.80419002446E+02 0. -1.
</event>
<event>
 4    1  0.1653896E-001  0.1250000E+03  0.7546771E-02  0.1126479E+00
        -11   -1    0    0    0    0  0.00000000000E+00  0.00000000000E+00  0.12500000000E+03  0.12500000000E+03  0.00000000000E+00 0.  1.
         11   -1    0    0    0    0 -0.00000000000E+00 -0.00000000000E+00 -0.12500000000E+03  0.12500000000E+03  0.00000000000E+00 0. -1.
         24    1    1    2    0    0 -0.63786374543E+01  0.13534245126E+02  0.94519422548E+02  0.12500000000E+03  0.80419002446E+02 0.  0.
        -24    1    1    2    0    0  0.63786374543E+01 -0.13534245126E+02 -0.94519422548E+02  0.12500000000E+03  0.80419002446E+02 0. -1.
</event>
<event>
 4    1  0.1653896E-001  0.1250000E+03  0.7546771E-02  0.1126479E+00
        -11   -1    0    0    0    0  0.00000000000E+00  0.00000000000E+00  0.12500000000E+03  0.12500000000E+03  0.00000000000E+00 0.  1.
         11   -1    0    0    0    0 -0.00000000000E+00 -0.00000000000E+00 -0.12500000000E+03  0.12500000000E+03  0.00000000000E+00 0. -1.
         24    1    1    2    0    0 -0.11787116181E+01 -0.55604414061E+02  0.77875181036E+02  0.12500000000E+03  0.80419002446E+02 0.  1.
        -24    1    1    2    0    0  0.11787116181E+01  0.55604414061E+02 -0.77875181036E+02  0.12500000000E+03  0.80419002446E+02 0. -1.
</event>
<event>
 4    1  0.1653896E-001  0.1250000E+03  0.7546771E-02  0.1126479E+00
        -11   -1    0    0    0    0  0.00000000000E+00  0.00000000000E+00  0.12500000000E+03  0.12500000000E+03  0.00000000000E+00 0.  1.
         11   -1    0    0    0    0 -0.00000000000E+00 -0.00000000000E+00 -0.12500000000E+03  0.12500000000E+03  0.00000000000E+00 0. -1.
         24    1    1    2    0    0  0.30550623594E+02 -0.14458410964E+02  0.89528754018E+02  0.12500000000E+03  0.80419002446E+02 0.  1.
        -24    1    1    2    0    0 -0.30550623594E+02  0.14458410964E+02 -0.89528754018E+02  0.12500000000E+03  0.80419002446E+02 0. -1.
</event>
<event>
 4    1  0.1653896E-001  0.1250000E+03  0.7546771E-02  0.1126479E+00
        -11   -1    0    0    0    0  0.00000000000E+00  0.00000000000E+00  0.12500000000E+03  0.12500000000E+03  0.00000000000E+00 0.  1.
         11   -1    0    0    0    0 -0.00000000000E+00 -0.00000000000E+00 -0.12500000000E+03  0.12500000000E+03  0.00000000000E+00 0. -1.
         24    1    1    2    0    0  0.19109454168E+00  0.60807100913E+02  0.73893463900E+02  0.12500000000E+03  0.80419002446E+02 0.  1.
        -24    1    1    2    0    0 -0.19109454168E+00 -0.60807100913E+02 -0.73893463900E+02  0.12500000000E+03  0.80419002446E+02 0. -1.
</event>
<event>
 4    1  0.1653896E-001  0.1250000E+03  0.7546771E-02  0.1126479E+00
        -11   -1    0    0    0    0  0.00000000000E+00  0.00000000000E+00  0.12500000000E+03  0.12500000000E+03  0.00000000000E+00 0.  1.
         11   -1    0    0    0    0 -0.00000000000E+00 -0.00000000000E+00 -0.12500000000E+03  0.12500000000E+03  0.00000000000E+00 0. -1.
         24    1    1    2    0    0 -0.26165165474E+02 -0.25068120549E+02  0.88570635616E+02  0.12500000000E+03  0.80419002446E+02 0.  1.
        -24    1    1    2    0    0  0.26165165474E+02  0.25068120549E+02 -0.88570635616E+02  0.12500000000E+03  0.80419002446E+02 0. -1.
</event>
<event>
 4    1  0.1653896E-001  0.1250000E+03  0.7546771E-02  0.1126479E+00
        -11   -1    0    0    0    0  0.00000000000E+00  0.00000000000E+00  0.12500000000E+03  0.12500000000E+03  0.00000000000E+00 0.  1.
         11   -1    0    0    0    0 -0.00000000000E+00 -0.00000000000E+00 -0.12500000000E+03  0.12500000000E+03  0.00000000000E+00 0. -1.
         24    1    1    2    0    0  0.55258281056E+01 -0.27898676446E+02  0.91372387087E+02  0.12500000000E+03  0.80419002446E+02 0.  1.
        -24    1    1    2    0    0 -0.55258281056E+01  0.27898676446E+02 -0.91372387087E+02  0.12500000000E+03  0.80419002446E+02 0. -1.
</event>
<event>
 4    1  0.1653896E-001  0.1250000E+03  0.7546771E-02  0.1126479E+00
        -11   -1    0    0    0    0  0.00000000000E+00  0.00000000000E+00  0.12500000000E+03  0.12500000000E+03  0.00000000000E+00 0.  1.
         11   -1    0    0    0    0 -0.00000000000E+00 -0.00000000000E+00 -0.12500000000E+03  0.12500000000E+03  0.00000000000E+00 0. -1.
         24    1    1    2    0    0 -0.80232160067E+01 -0.46749383608E+01  0.95244721648E+02  0.12500000000E+03  0.80419002446E+02 0.  1.
        -24    1    1    2    0    0  0.80232160067E+01  0.46749383608E+01 -0.95244721648E+02  0.12500000000E+03  0.80419002446E+02 0.  0.
</event>
<event>
 4    1  0.1653896E-001  0.1250000E+03  0.7546771E-02  0.1126479E+00
        -11   -1    0    0    0    0  0.00000000000E+00  0.00000000000E+00  0.12500000000E+03  0.12500000000E+03  0.00000000000E+00 0.  1.
         11   -1    0    0    0    0 -0.00000000000E+00 -0.00000000000E+00 -0.12500000000E+03  0.12500000000E+03  0.00000000000E+00 0. -1.
         24    1    1    2    0    0  0.60653927370E+02  0.56387620780E+02  0.47951239431E+02  0.12500000000E+03  0.80419002446E+02 0.  1.
        -24    1    1    2    0    0 -0.60653927370E+02 -0.56387620780E+02 -0.47951239431E+02  0.12500000000E+03  0.80419002446E+02 0. -1.
</event>
<event>
 4    1  0.1653896E-001  0.1250000E+03  0.7546771E-02  0.1126479E+00
        -11   -1    0    0    0    0  0.00000000000E+00  0.00000000000E+00  0.12500000000E+03  0.12500000000E+03  0.00000000000E+00 0.  1.
         11   -1    0    0    0    0 -0.00000000000E+00 -0.00000000000E+00 -0.12500000000E+03  0.12500000000E+03  0.00000000000E+00 0. -1.
         24    1    1    2    0    0 -0.36721598631E+02 -0.38513385643E+02  0.79536327335E+02  0.12500000000E+03  0.80419002446E+02 0.  1.
        -24    1    1    2    0    0  0.36721598631E+02  0.38513385643E+02 -0.79536327335E+02  0.12500000000E+03  0.80419002446E+02 0. -1.
</event>
<event>
 4    1  0.1653896E-001  0.1250000E+03  0.7546771E-02  0.1126479E+00
        -11   -1    0    0    0    0  0.00000000000E+00  0.00000000000E+00  0.12500000000E+03  0.12500000000E+03  0.00000000000E+00 0.  1.
         11   -1    0    0    0    0 -0.00000000000E+00 -0.00000000000E+00 -0.12500000000E+03  0.12500000000E+03  0.00000000000E+00 0. -1.
         24    1    1    2    0    0 -0.41636439064E+02  0.79822963145E+02  0.32442033574E+02  0.12500000000E+03  0.80419002446E+02 0. -1.
        -24    1    1    2    0    0  0.41636439064E+02 -0.79822963145E+02 -0.32442033574E+02  0.12500000000E+03  0.80419002446E+02 0.  1.
</event>
<event>
 4    1  0.1653896E-001  0.1250000E+03  0.7546771E-02  0.1126479E+00
        -11   -1    0    0    0    0  0.00000000000E+00  0.00000000000E+00  0.12500000000E+03  0.12500000000E+03  0.00000000000E+00 0.  1.
         11   -1    0    0    0    0 -0.00000000000E+00 -0.00000000000E+00 -0.12500000000E+03  0.12500000000E+03  0.00000000000E+00 0. -1.
         24    1    1    2    0    0 -0.24718735880E+02 -0.84939659235E+02  0.36496882485E+02  0.12500000000E+03  0.80419002446E+02 0.  1.
        -24    1    1    2    0    0  0.24718735880E+02  0.84939659235E+02 -0.36496882485E+02  0.12500000000E+03  0.80419002446E+02 0. -1.
</event>
<event>
 4    1  0.1653896E-001  0.1250000E+03  0.7546771E-02  0.1126479E+00
        -11   -1    0    0    0    0  0.00000000000E+00  0.00000000000E+00  0.12500000000E+03  0.12500000000E+03  0.00000000000E+00 0.  1.
         11   -1    0    0    0    0 -0.00000000000E+00 -0.00000000000E+00 -0.12500000000E+03  0.12500000000E+03  0.00000000000E+00 0. -1.
         24    1    1    2    0    0 -0.32237993491E+01 -0.36162376494E+02  0.88541931816E+02  0.12500000000E+03  0.80419002446E+02 0.  1.
        -24    1    1    2    0    0  0.32237993491E+01  0.36162376494E+02 -0.88541931816E+02  0.12500000000E+03  0.80419002446E+02 0. -1.
</event>
<event>
 4    1  0.1653896E-001  0.1250000E+03  0.7546771E-02  0.1126479E+00
        -11   -1    0    0    0    0  0.00000000000E+00  0.00000000000E+00  0.12500000000E+03  0.12500000000E+03  0.00000000000E+00 0.  1.
         11   -1    0    0    0    0 -0.00000000000E+00 -0.00000000000E+00 -0.12500000000E+03  0.12500000000E+03  0.00000000000E+00 0. -1.
         24    1    1    2    0    0 -0.12626572137E+02 -0.58815297521E+02 -0.74425227572E+02  0.12500000000E+03  0.80419002446E+02 0. -1.
        -24    1    1    2    0    0  0.12626572137E+02  0.58815297521E+02  0.74425227572E+02  0.12500000000E+03  0.80419002446E+02 0.  1.
</event>
<event>
 4    1  0.1653896E-001  0.1250000E+03  0.7546771E-02  0.1126479E+00
        -11   -1    0    0    0    0  0.00000000000E+00  0.00000000000E+00  0.12500000000E+03  0.12500000000E+03  0.00000000000E+00 0.  1.
         11   -1    0    0    0    0 -0.00000000000E+00 -0.00000000000E+00 -0.12500000000E+03  0.12500000000E+03  0.00000000000E+00 0. -1.
         24    1    1    2    0    0  0.20671530216E+01  0.20663943265E+02  0.93415803656E+02  0.12500000000E+03  0.80419002446E+02 0.  0.
        -24    1    1    2    0    0 -0.20671530216E+01 -0.20663943265E+02 -0.93415803656E+02  0.12500000000E+03  0.80419002446E+02 0. -1.
</event>
<event>
 4    1  0.1653896E-001  0.1250000E+03  0.7546771E-02  0.1126479E+00
        -11   -1    0    0    0    0  0.00000000000E+00  0.00000000000E+00  0.12500000000E+03  0.12500000000E+03  0.00000000000E+00 0.  1.
         11   -1    0    0    0    0 -0.00000000000E+00 -0.00000000000E+00 -0.12500000000E+03  0.12500000000E+03  0.00000000000E+00 0. -1.
         24    1    1    2    0    0  0.72744538917E+02  0.25171158403E+02  0.56854453546E+02  0.12500000000E+03  0.80419002446E+02 0.  1.
        -24    1    1    2    0    0 -0.72744538917E+02 -0.25171158403E+02 -0.56854453546E+02  0.12500000000E+03  0.80419002446E+02 0. -1.
</event>
<event>
 4    1  0.1653896E-001  0.1250000E+03  0.7546771E-02  0.1126479E+00
        -11   -1    0    0    0    0  0.00000000000E+00  0.00000000000E+00  0.12500000000E+03  0.12500000000E+03  0.00000000000E+00 0.  1.
         11   -1    0    0    0    0 -0.00000000000E+00 -0.00000000000E+00 -0.12500000000E+03  0.12500000000E+03  0.00000000000E+00 0. -1.
         24    1    1    2    0    0 -0.19082968648E+02  0.35415903477E+02  0.86829362166E+02  0.12500000000E+03  0.80419002446E+02 0.  1.
        -24    1    1    2    0    0  0.19082968648E+02 -0.35415903477E+02 -0.86829362166E+02  0.12500000000E+03  0.80419002446E+02 0. -1.
</event>
<event>
 4    1  0.1653896E-001  0.1250000E+03  0.7546771E-02  0.1126479E+00
        -11   -1    0    0    0    0  0.00000000000E+00  0.00000000000E+00  0.12500000000E+03  0.12500000000E+03  0.00000000000E+00 0.  1.
         11   -1    0    0    0    0 -0.00000000000E+00 -0.00000000000E+00 -0.12500000000E+03  0.12500000000E+03  0.00000000000E+00 0. -1.
         24    1    1    2    0    0 -0.43131789162E+02  0.58518240269E+02  0.62233820107E+02  0.12500000000E+03  0.80419002446E+02 0.  1.
        -24    1    1    2    0    0  0.43131789162E+02 -0.58518240269E+02 -0.62233820107E+02  0.12500000000E+03  0.80419002446E+02 0. -1.
</event>
<event>
 4    1  0.1653896E-001  0.1250000E+03  0.7546771E-02  0.1126479E+00
        -11   -1    0    0    0    0  0.00000000000E+00  0.00000000000E+00  0.12500000000E+03  0.12500000000E+03  0.00000000000E+00 0.  1.
         11   -1    0    0    0    0 -0.00000000000E+00 -0.00000000000E+00 -0.12500000000E+03  0.12500000000E+03  0.00000000000E+00 0. -1.
         24    1    1    2    0    0  0.71065573671E+02 -0.42850721430E+02  0.47657989439E+02  0.12500000000E+03  0.80419002446E+02 0.  1.
        -24    1    1    2    0    0 -0.71065573671E+02  0.42850721430E+02 -0.47657989439E+02  0.12500000000E+03  0.80419002446E+02 0. -1.
</event>
<event>
 4    1  0.1653896E-001  0.1250000E+03  0.7546771E-02  0.1126479E+00
        -11   -1    0    0    0    0  0.00000000000E+00  0.00000000000E+00  0.12500000000E+03  0.12500000000E+03  0.00000000000E+00 0.  1.
         11   -1    0    0    0    0 -0.00000000000E+00 -0.00000000000E+00 -0.12500000000E+03  0.12500000000E+03  0.00000000000E+00 0. -1.
         24    1    1    2    0    0 -0.17613718646E+02 -0.26451370240E+02  0.90265530373E+02  0.12500000000E+03  0.80419002446E+02 0.  0.
        -24    1    1    2    0    0  0.17613718646E+02  0.26451370240E+02 -0.90265530373E+02  0.12500000000E+03  0.80419002446E+02 0.  0.
</event>
<event>
 4    1  0.1653896E-001  0.1250000E+03  0.7546771E-02  0.1126479E+00
        -11   -1    0    0    0    0  0.00000000000E+00  0.00000000000E+00  0.12500000000E+03  0.12500000000E+03  0.00000000000E+00 0.  1.
         11   -1    0    0    0    0 -0.00000000000E+00 -0.00000000000E+00 -0.12500000000E+03  0.12500000000E+03  0.00000000000E+00 0. -1.
         24    1    1    2    0    0 -0.85188429365E+00  0.83582758558E+01  0.95326793524E+02  0.12500000000E+03  0.80419002446E+02 0.  0.
        -24    1    1    2    0    0  0.85188429365E+00 -0.83582758558E+01 -0.95326793524E+02  0.12500000000E+03  0.80419002446E+02 0. -1.
</event>
<event>
 4    1  0.1653896E-001  0.1250000E+03  0.7546771E-02  0.1126479E+00
        -11   -1    0    0    0    0  0.00000000000E+00  0.00000000000E+00  0.12500000000E+03  0.12500000000E+03  0.00000000000E+00 0.  1.
         11   -1    0    0    0    0 -0.00000000000E+00 -0.00000000000E+00 -0.12500000000E+03  0.12500000000E+03  0.00000000000E+00 0. -1.
         24    1    1    2    0    0 -0.67787281021E+01 -0.49481681150E+01  0.95327585322E+02  0.12500000000E+03  0.80419002446E+02 0.  0.
        -24    1    1    2    0    0  0.67787281021E+01  0.49481681150E+01 -0.95327585322E+02  0.12500000000E+03  0.80419002446E+02 0. -1.
</event>
<event>
 4    1  0.1653896E-001  0.1250000E+03  0.7546771E-02  0.1126479E+00
        -11   -1    0    0    0    0  0.00000000000E+00  0.00000000000E+00  0.12500000000E+03  0.12500000000E+03  0.00000000000E+00 0.  1.
         11   -1    0    0    0    0 -0.00000000000E+00 -0.00000000000E+00 -0.12500000000E+03  0.12500000000E+03  0.00000000000E+00 0. -1.
         24    1    1    2    0    0  0.71176628180E+02  0.26813370385E+02  0.58075079124E+02  0.12500000000E+03  0.80419002446E+02 0.  1.
        -24    1    1    2    0    0 -0.71176628180E+02 -0.26813370385E+02 -0.58075079124E+02  0.12500000000E+03  0.80419002446E+02 0.  0.
</event>
<event>
 4    1  0.1653896E-001  0.1250000E+03  0.7546771E-02  0.1126479E+00
        -11   -1    0    0    0    0  0.00000000000E+00  0.00000000000E+00  0.12500000000E+03  0.12500000000E+03  0.00000000000E+00 0.  1.
         11   -1    0    0    0    0 -0.00000000000E+00 -0.00000000000E+00 -0.12500000000E+03  0.12500000000E+03  0.00000000000E+00 0. -1.
         24    1    1    2    0    0 -0.62316982789E+02 -0.71294963087E+01 -0.72274116972E+02  0.12500000000E+03  0.80419002446E+02 0.  1.
        -24    1    1    2    0    0  0.62316982789E+02  0.71294963087E+01  0.72274116972E+02  0.12500000000E+03  0.80419002446E+02 0.  0.
</event>
<event>
 4    1  0.1653896E-001  0.1250000E+03  0.7546771E-02  0.1126479E+00
        -11   -1    0    0    0    0  0.00000000000E+00  0.00000000000E+00  0.12500000000E+03  0.12500000000E+03  0.00000000000E+00 0.  1.
         11   -1    0    0    0    0 -0.00000000000E+00 -0.00000000000E+00 -0.12500000000E+03  0.12500000000E+03  0.00000000000E+00 0. -1.
         24    1    1    2    0    0 -0.70935725819E+02 -0.43708109788E+02 -0.47069182986E+02  0.12500000000E+03  0.80419002446E+02 0.  0.
        -24    1    1    2    0    0  0.70935725819E+02  0.43708109788E+02  0.47069182986E+02  0.12500000000E+03  0.80419002446E+02 0.  0.
</event>
<event>
 4    1  0.1653896E-001  0.1250000E+03  0.7546771E-02  0.1126479E+00
        -11   -1    0    0    0    0  0.00000000000E+00  0.00000000000E+00  0.12500000000E+03  0.12500000000E+03  0.00000000000E+00 0.  1.
         11   -1    0    0    0    0 -0.00000000000E+00 -0.00000000000E+00 -0.12500000000E+03  0.12500000000E+03  0.00000000000E+00 0. -1.
         24    1    1    2    0    0  0.56311451899E+02  0.22832863506E+02  0.73928781776E+02  0.12500000000E+03  0.80419002446E+02 0.  1.
        -24    1    1    2    0    0 -0.56311451899E+02 -0.22832863506E+02 -0.73928781776E+02  0.12500000000E+03  0.80419002446E+02 0. -1.
</event>
<event>
 4    1  0.1653896E-001  0.1250000E+03  0.7546771E-02  0.1126479E+00
        -11   -1    0    0    0    0  0.00000000000E+00  0.00000000000E+00  0.12500000000E+03  0.12500000000E+03  0.00000000000E+00 0.  1.
         11   -1    0    0    0    0 -0.00000000000E+00 -0.00000000000E+00 -0.12500000000E+03  0.12500000000E+03  0.00000000000E+00 0. -1.
         24    1    1    2    0    0  0.71370409397E+02  0.29339019646E+01  0.63682343922E+02  0.12500000000E+03  0.80419002446E+02 0.  1.
        -24    1    1    2    0    0 -0.71370409397E+02 -0.29339019646E+01 -0.63682343922E+02  0.12500000000E+03  0.80419002446E+02 0. -1.
</event>
<event>
 4    1  0.1653896E-001  0.1250000E+03  0.7546771E-02  0.1126479E+00
        -11   -1    0    0    0    0  0.00000000000E+00  0.00000000000E+00  0.12500000000E+03  0.12500000000E+03  0.00000000000E+00 0.  1.
         11   -1    0    0    0    0 -0.00000000000E+00 -0.00000000000E+00 -0.12500000000E+03  0.12500000000E+03  0.00000000000E+00 0. -1.
         24    1    1    2    0    0 -0.63774707619E+02 -0.50325751344E+02  0.50575581711E+02  0.12500000000E+03  0.80419002446E+02 0. -1.
        -24    1    1    2    0    0  0.63774707619E+02  0.50325751344E+02 -0.50575581711E+02  0.12500000000E+03  0.80419002446E+02 0.  0.
</event>
<event>
 4    1  0.1653896E-001  0.1250000E+03  0.7546771E-02  0.1126479E+00
        -11   -1    0    0    0    0  0.00000000000E+00  0.00000000000E+00  0.12500000000E+03  0.12500000000E+03  0.00000000000E+00 0.  1.
         11   -1    0    0    0    0 -0.00000000000E+00 -0.00000000000E+00 -0.12500000000E+03  0.12500000000E+03  0.00000000000E+00 0. -1.
         24    1    1    2    0    0 -0.10272553093E+02 -0.12787699325E+02  0.94280079786E+02  0.12500000000E+03  0.80419002446E+02 0.  1.
        -24    1    1    2    0    0  0.10272553093E+02  0.12787699325E+02 -0.94280079786E+02  0.12500000000E+03  0.80419002446E+02 0.  0.
</event>
<event>
 4    1  0.1653896E-001  0.1250000E+03  0.7546771E-02  0.1126479E+00
        -11   -1    0    0    0    0  0.00000000000E+00  0.00000000000E+00  0.12500000000E+03  0.12500000000E+03  0.00000000000E+00 0.  1.
         11   -1    0    0    0    0 -0.00000000000E+00 -0.00000000000E+00 -0.12500000000E+03  0.12500000000E+03  0.00000000000E+00 0. -1.
         24    1    1    2    0    0 -0.23081843600E+01  0.95380232972E+02  0.74207471917E+01  0.12500000000E+03  0.80419002446E+02 0.  1.
        -24    1    1    2    0    0  0.23081843600E+01 -0.95380232972E+02 -0.74207471917E+01  0.12500000000E+03  0.80419002446E+02 0. -1.
</event>
<event>
 4    1  0.1653896E-001  0.1250000E+03  0.7546771E-02  0.1126479E+00
        -11   -1    0    0    0    0  0.00000000000E+00  0.00000000000E+00  0.12500000000E+03  0.12500000000E+03  0.00000000000E+00 0.  1.
         11   -1    0    0    0    0 -0.00000000000E+00 -0.00000000000E+00 -0.12500000000E+03  0.12500000000E+03  0.00000000000E+00 0. -1.
         24    1    1    2    0    0  0.79967629260E+00  0.81337037332E+02  0.50412606772E+02  0.12500000000E+03  0.80419002446E+02 0.  1.
        -24    1    1    2    0    0 -0.79967629260E+00 -0.81337037332E+02 -0.50412606772E+02  0.12500000000E+03  0.80419002446E+02 0. -1.
</event>
<event>
 4    1  0.1653896E-001  0.1250000E+03  0.7546771E-02  0.1126479E+00
        -11   -1    0    0    0    0  0.00000000000E+00  0.00000000000E+00  0.12500000000E+03  0.12500000000E+03  0.00000000000E+00 0.  1.
         11   -1    0    0    0    0 -0.00000000000E+00 -0.00000000000E+00 -0.12500000000E+03  0.12500000000E+03  0.00000000000E+00 0. -1.
         24    1    1    2    0    0  0.51930790192E+02 -0.29943002096E+02  0.74594863772E+02  0.12500000000E+03  0.80419002446E+02 0.  1.
        -24    1    1    2    0    0 -0.51930790192E+02  0.29943002096E+02 -0.74594863772E+02  0.12500000000E+03  0.80419002446E+02 0. -1.
</event>
<event>
 4    1  0.1653896E-001  0.1250000E+03  0.7546771E-02  0.1126479E+00
        -11   -1    0    0    0    0  0.00000000000E+00  0.00000000000E+00  0.12500000000E+03  0.12500000000E+03  0.00000000000E+00 0.  1.
         11   -1    0    0    0    0 -0.00000000000E+00 -0.00000000000E+00 -0.12500000000E+03  0.12500000000E+03  0.00000000000E+00 0. -1.
         24    1    1    2    0    0 -0.29196010000E+02 -0.12725202107E+02  0.90241045412E+02  0.12500000000E+03  0.80419002446E+02 0.  1.
        -24    1    1    2    0    0  0.29196010000E+02  0.12725202107E+02 -0.90241045412E+02  0.12500000000E+03  0.80419002446E+02 0. -1.
</event>
<event>
 4    1  0.1653896E-001  0.1250000E+03  0.7546771E-02  0.1126479E+00
        -11   -1    0    0    0    0  0.00000000000E+00  0.00000000000E+00  0.12500000000E+03  0.12500000000E+03  0.00000000000E+00 0.  1.
         11   -1    0    0    0    0 -0.00000000000E+00 -0.00000000000E+00 -0.12500000000E+03  0.12500000000E+03  0.00000000000E+00 0. -1.
         24    1    1    2    0    0 -0.59825731001E+02  0.28997552671E+02  0.68831736102E+02  0.12500000000E+03  0.80419002446E+02 0.  1.
        -24    1    1    2    0    0  0.59825731001E+02 -0.28997552671E+02 -0.68831736102E+02  0.12500000000E+03  0.80419002446E+02 0. -1.
</event>
<event>
 4    1  0.1653896E-001  0.1250000E+03  0.7546771E-02  0.1126479E+00
        -11   -1    0    0    0    0  0.00000000000E+00  0.00000000000E+00  0.12500000000E+03  0.12500000000E+03  0.00000000000E+00 0.  1.
         11   -1    0    0    0    0 -0.00000000000E+00 -0.00000000000E+00 -0.12500000000E+03  0.12500000000E+03  0.00000000000E+00 0. -1.
         24    1    1    2    0    0  0.85784779967E+02  0.19177186153E+02  0.37828443041E+02  0.12500000000E+03  0.80419002446E+02 0.  1.
        -24    1    1    2    0    0 -0.85784779967E+02 -0.19177186153E+02 -0.37828443041E+02  0.12500000000E+03  0.80419002446E+02 0. -1.
</event>
<event>
 4    1  0.1653896E-001  0.1250000E+03  0.7546771E-02  0.1126479E+00
        -11   -1    0    0    0    0  0.00000000000E+00  0.00000000000E+00  0.12500000000E+03  0.12500000000E+03  0.00000000000E+00 0.  1.
         11   -1    0    0    0    0 -0.00000000000E+00 -0.00000000000E+00 -0.12500000000E+03  0.12500000000E+03  0.00000000000E+00 0. -1.
         24    1    1    2    0    0 -0.23365902999E+02  0.80435322058E+02  0.46281503736E+02  0.12500000000E+03  0.80419002446E+02 0. -1.
        -24    1    1    2    0    0  0.23365902999E+02 -0.80435322058E+02 -0.46281503736E+02  0.12500000000E+03  0.80419002446E+02 0.  1.
</event>
<event>
 4    1  0.1653896E-001  0.1250000E+03  0.7546771E-02  0.1126479E+00
        -11   -1    0    0    0    0  0.00000000000E+00  0.00000000000E+00  0.12500000000E+03  0.12500000000E+03  0.00000000000E+00 0.  1.
         11   -1    0    0    0    0 -0.00000000000E+00 -0.00000000000E+00 -0.12500000000E+03  0.12500000000E+03  0.00000000000E+00 0. -1.
         24    1    1    2    0    0 -0.14009739221E+02 -0.22362856669E+02  0.91985944003E+02  0.12500000000E+03  0.80419002446E+02 0.  1.
        -24    1    1    2    0    0  0.14009739221E+02  0.22362856669E+02 -0.91985944003E+02  0.12500000000E+03  0.80419002446E+02 0. -1.
</event>
<event>
 4    1  0.1653896E-001  0.1250000E+03  0.7546771E-02  0.1126479E+00
        -11   -1    0    0    0    0  0.00000000000E+00  0.00000000000E+00  0.12500000000E+03  0.12500000000E+03  0.00000000000E+00 0.  1.
         11   -1    0    0    0    0 -0.00000000000E+00 -0.00000000000E+00 -0.12500000000E+03  0.12500000000E+03  0.00000000000E+00 0. -1.
         24    1    1    2    0    0  0.59034641396E+02 -0.31890125330E+02  0.68232800523E+02  0.12500000000E+03  0.80419002446E+02 0.  1.
        -24    1    1    2    0    0 -0.59034641396E+02  0.31890125330E+02 -0.68232800523E+02  0.12500000000E+03  0.80419002446E+02 0. -1.
</event>
<event>
 4    1  0.1653896E-001  0.1250000E+03  0.7546771E-02  0.1126479E+00
        -11   -1    0    0    0    0  0.00000000000E+00  0.00000000000E+00  0.12500000000E+03  0.12500000000E+03  0.00000000000E+00 0.  1.
         11   -1    0    0    0    0 -0.00000000000E+00 -0.00000000000E+00 -0.12500000000E+03  0.12500000000E+03  0.00000000000E+00 0. -1.
         24    1    1    2    0    0 -0.29790656783E+02 -0.21006709075E+02  0.88481743811E+02  0.12500000000E+03  0.80419002446E+02 0.  1.
        -24    1    1    2    0    0  0.29790656783E+02  0.21006709075E+02 -0.88481743811E+02  0.12500000000E+03  0.80419002446E+02 0. -1.
</event>
<event>
 4    1  0.1653896E-001  0.1250000E+03  0.7546771E-02  0.1126479E+00
        -11   -1    0    0    0    0  0.00000000000E+00  0.00000000000E+00  0.12500000000E+03  0.12500000000E+03  0.00000000000E+00 0.  1.
         11   -1    0    0    0    0 -0.00000000000E+00 -0.00000000000E+00 -0.12500000000E+03  0.12500000000E+03  0.00000000000E+00 0. -1.
         24    1    1    2    0    0  0.16112844508E+02  0.24950369067E+02  0.90970541226E+02  0.12500000000E+03  0.80419002446E+02 0.  1.
        -24    1    1    2    0    0 -0.16112844508E+02 -0.24950369067E+02 -0.90970541226E+02  0.12500000000E+03  0.80419002446E+02 0. -1.
</event>
<event>
 4    1  0.1653896E-001  0.1250000E+03  0.7546771E-02  0.1126479E+00
        -11   -1    0    0    0    0  0.00000000000E+00  0.00000000000E+00  0.12500000000E+03  0.12500000000E+03  0.00000000000E+00 0.  1.
         11   -1    0    0    0    0 -0.00000000000E+00 -0.00000000000E+00 -0.12500000000E+03  0.12500000000E+03  0.00000000000E+00 0. -1.
         24    1    1    2    0    0  0.20831015810E+02 -0.49170768263E+02  0.79410883223E+02  0.12500000000E+03  0.80419002446E+02 0.  1.
        -24    1    1    2    0    0 -0.20831015810E+02  0.49170768263E+02 -0.79410883223E+02  0.12500000000E+03  0.80419002446E+02 0. -1.
</event>
<event>
 4    1  0.1653896E-001  0.1250000E+03  0.7546771E-02  0.1126479E+00
        -11   -1    0    0    0    0  0.00000000000E+00  0.00000000000E+00  0.12500000000E+03  0.12500000000E+03  0.00000000000E+00 0.  1.
         11   -1    0    0    0    0 -0.00000000000E+00 -0.00000000000E+00 -0.12500000000E+03  0.12500000000E+03  0.00000000000E+00 0. -1.
         24    1    1    2    0    0 -0.64976430217E+02 -0.46364143360E+02  0.52784597870E+02  0.12500000000E+03  0.80419002446E+02 0.  1.
        -24    1    1    2    0    0  0.64976430217E+02  0.46364143360E+02 -0.52784597870E+02  0.12500000000E+03  0.80419002446E+02 0. -1.
</event>
<event>
 4    1  0.1653896E-001  0.1250000E+03  0.7546771E-02  0.1126479E+00
        -11   -1    0    0    0    0  0.00000000000E+00  0.00000000000E+00  0.12500000000E+03  0.12500000000E+03  0.00000000000E+00 0.  1.
         11   -1    0    0    0    0 -0.00000000000E+00 -0.00000000000E+00 -0.12500000000E+03  0.12500000000E+03  0.00000000000E+00 0. -1.
         24    1    1    2    0    0  0.73953674284E+01  0.90093083534E+01  0.94983814143E+02  0.12500000000E+03  0.80419002446E+02 0.  1.
        -24    1    1    2    0    0 -0.73953674284E+01 -0.90093083534E+01 -0.94983814143E+02  0.12500000000E+03  0.80419002446E+02 0. -1.
</event>
<event>
 4    1  0.1653896E-001  0.1250000E+03  0.7546771E-02  0.1126479E+00
        -11   -1    0    0    0    0  0.00000000000E+00  0.00000000000E+00  0.12500000000E+03  0.12500000000E+03  0.00000000000E+00 0.  1.
         11   -1    0    0    0    0 -0.00000000000E+00 -0.00000000000E+00 -0.12500000000E+03  0.12500000000E+03  0.00000000000E+00 0. -1.
         24    1    1    2    0    0 -0.44698230829E+02  0.83808936781E+02  0.11658229797E+02  0.12500000000E+03  0.80419002446E+02 0.  1.
        -24    1    1    2    0    0  0.44698230829E+02 -0.83808936781E+02 -0.11658229797E+02  0.12500000000E+03  0.80419002446E+02 0. -1.
</event>
<event>
 4    1  0.1653896E-001  0.1250000E+03  0.7546771E-02  0.1126479E+00
        -11   -1    0    0    0    0  0.00000000000E+00  0.00000000000E+00  0.12500000000E+03  0.12500000000E+03  0.00000000000E+00 0.  1.
         11   -1    0    0    0    0 -0.00000000000E+00 -0.00000000000E+00 -0.12500000000E+03  0.12500000000E+03  0.00000000000E+00 0. -1.
         24    1    1    2    0    0 -0.37055447274E+02  0.50746496822E+02  0.72176664742E+02  0.12500000000E+03  0.80419002446E+02 0.  1.
        -24    1    1    2    0    0  0.37055447274E+02 -0.50746496822E+02 -0.72176664742E+02  0.12500000000E+03  0.80419002446E+02 0. -1.
</event>
<event>
 4    1  0.1653896E-001  0.1250000E+03  0.7546771E-02  0.1126479E+00
        -11   -1    0    0    0    0  0.00000000000E+00  0.00000000000E+00  0.12500000000E+03  0.12500000000E+03  0.00000000000E+00 0.  1.
         11   -1    0    0    0    0 -0.00000000000E+00 -0.00000000000E+00 -0.12500000000E+03  0.12500000000E+03  0.00000000000E+00 0. -1.
         24    1    1    2    0    0  0.10133522249E+02 -0.13424690124E+02  0.94206546840E+02  0.12500000000E+03  0.80419002446E+02 0.  0.
        -24    1    1    2    0    0 -0.10133522249E+02  0.13424690124E+02 -0.94206546840E+02  0.12500000000E+03  0.80419002446E+02 0. -1.
</event>
<event>
 4    1  0.1653896E-001  0.1250000E+03  0.7546771E-02  0.1126479E+00
        -11   -1    0    0    0    0  0.00000000000E+00  0.00000000000E+00  0.12500000000E+03  0.12500000000E+03  0.00000000000E+00 0.  1.
         11   -1    0    0    0    0 -0.00000000000E+00 -0.00000000000E+00 -0.12500000000E+03  0.12500000000E+03  0.00000000000E+00 0. -1.
         24    1    1    2    0    0 -0.73005633694E+02  0.61802632211E+02  0.28976104562E+01  0.12500000000E+03  0.80419002446E+02 0.  0.
        -24    1    1    2    0    0  0.73005633694E+02 -0.61802632211E+02 -0.28976104562E+01  0.12500000000E+03  0.80419002446E+02 0.  0.
</event>
<event>
 4    1  0.1653896E-001  0.1250000E+03  0.7546771E-02  0.1126479E+00
        -11   -1    0    0    0    0  0.00000000000E+00  0.00000000000E+00  0.12500000000E+03  0.12500000000E+03  0.00000000000E+00 0.  1.
         11   -1    0    0    0    0 -0.00000000000E+00 -0.00000000000E+00 -0.12500000000E+03  0.12500000000E+03  0.00000000000E+00 0. -1.
         24    1    1    2    0    0  0.72836764425E+02 -0.62053662002E+02  0.13902610585E+01  0.12500000000E+03  0.80419002446E+02 0. -1.
        -24    1    1    2    0    0 -0.72836764425E+02  0.62053662002E+02 -0.13902610585E+01  0.12500000000E+03  0.80419002446E+02 0.  1.
</event>
<event>
 4    1  0.1653896E-001  0.1250000E+03  0.7546771E-02  0.1126479E+00
        -11   -1    0    0    0    0  0.00000000000E+00  0.00000000000E+00  0.12500000000E+03  0.12500000000E+03  0.00000000000E+00 0.  1.
         11   -1    0    0    0    0 -0.00000000000E+00 -0.00000000000E+00 -0.12500000000E+03  0.12500000000E+03  0.00000000000E+00 0. -1.
         24    1    1    2    0    0  0.16451273565E+02  0.22661809792E+02  0.91507278512E+02  0.12500000000E+03  0.80419002446E+02 0.  1.
        -24    1    1    2    0    0 -0.16451273565E+02 -0.22661809792E+02 -0.91507278512E+02  0.12500000000E+03  0.80419002446E+02 0.  0.
</event>
<event>
 4    1  0.1653896E-001  0.1250000E+03  0.7546771E-02  0.1126479E+00
        -11   -1    0    0    0    0  0.00000000000E+00  0.00000000000E+00  0.12500000000E+03  0.12500000000E+03  0.00000000000E+00 0.  1.
         11   -1    0    0    0    0 -0.00000000000E+00 -0.00000000000E+00 -0.12500000000E+03  0.12500000000E+03  0.00000000000E+00 0. -1.
         24    1    1    2    0    0  0.18694702426E+02 -0.49887233598E+01  0.93719820668E+02  0.12500000000E+03  0.80419002446E+02 0.  1.
        -24    1    1    2    0    0 -0.18694702426E+02  0.49887233598E+01 -0.93719820668E+02  0.12500000000E+03  0.80419002446E+02 0. -1.
</event>
<event>
 4    1  0.1653896E-001  0.1250000E+03  0.7546771E-02  0.1126479E+00
        -11   -1    0    0    0    0  0.00000000000E+00  0.00000000000E+00  0.12500000000E+03  0.12500000000E+03  0.00000000000E+00 0.  1.
         11   -1    0    0    0    0 -0.00000000000E+00 -0.00000000000E+00 -0.12500000000E+03  0.12500000000E+03  0.00000000000E+00 0. -1.
         24    1    1    2    0    0  0.41249112397E+00 -0.14909508836E+02  0.94526823934E+02  0.12500000000E+03  0.80419002446E+02 0.  0.
        -24    1    1    2    0    0 -0.41249112397E+00  0.14909508836E+02 -0.94526823934E+02  0.12500000000E+03  0.80419002446E+02 0.  0.
</event>
<event>
 4    1  0.1653896E-001  0.1250000E+03  0.7546771E-02  0.1126479E+00
        -11   -1    0    0    0    0  0.00000000000E+00  0.00000000000E+00  0.12500000000E+03  0.12500000000E+03  0.00000000000E+00 0.  1.
         11   -1    0    0    0    0 -0.00000000000E+00 -0.00000000000E+00 -0.12500000000E+03  0.12500000000E+03  0.00000000000E+00 0. -1.
         24    1    1    2    0    0 -0.94308352474E+02  0.12192521944E+02 -0.10726654084E+02  0.12500000000E+03  0.80419002446E+02 0.  1.
        -24    1    1    2    0    0  0.94308352474E+02 -0.12192521944E+02  0.10726654084E+02  0.12500000000E+03  0.80419002446E+02 0. -1.
</event>
<event>
 4    1  0.1653896E-001  0.1250000E+03  0.7546771E-02  0.1126479E+00
        -11   -1    0    0    0    0  0.00000000000E+00  0.00000000000E+00  0.12500000000E+03  0.12500000000E+03  0.00000000000E+00 0.  1.
         11   -1    0    0    0    0 -0.00000000000E+00 -0.00000000000E+00 -0.12500000000E+03  0.12500000000E+03  0.00000000000E+00 0. -1.
         24    1    1    2    0    0 -0.49306875236E+01  0.45763221511E+02  0.83899939947E+02  0.12500000000E+03  0.80419002446E+02 0.  1.
        -24    1    1    2    0    0  0.49306875236E+01 -0.45763221511E+02 -0.83899939947E+02  0.12500000000E+03  0.80419002446E+02 0. -1.
</event>
<event>
 4    1  0.1653896E-001  0.1250000E+03  0.7546771E-02  0.1126479E+00
        -11   -1    0    0    0    0  0.00000000000E+00  0.00000000000E+00  0.12500000000E+03  0.12500000000E+03  0.00000000000E+00 0.  1.
         11   -1    0    0    0    0 -0.00000000000E+00 -0.00000000000E+00 -0.12500000000E+03  0.12500000000E+03  0.00000000000E+00 0. -1.
         24    1    1    2    0    0 -0.75239853395E+02  0.41311881450E+02  0.42309301079E+02  0.12500000000E+03  0.80419002446E+02 0.  0.
        -24    1    1    2    0    0  0.75239853395E+02 -0.41311881450E+02 -0.42309301079E+02  0.12500000000E+03  0.80419002446E+02 0.  0.
</event>
<event>
 4    1  0.1653896E-001  0.1250000E+03  0.7546771E-02  0.1126479E+00
        -11   -1    0    0    0    0  0.00000000000E+00  0.00000000000E+00  0.12500000000E+03  0.12500000000E+03  0.00000000000E+00 0.  1.
         11   -1    0    0    0    0 -0.00000000000E+00 -0.00000000000E+00 -0.12500000000E+03  0.12500000000E+03  0.00000000000E+00 0. -1.
         24    1    1    2    0    0 -0.39337542100E+02  0.97442433394E+01  0.86691357983E+02  0.12500000000E+03  0.80419002446E+02 0.  1.
        -24    1    1    2    0    0  0.39337542100E+02 -0.97442433394E+01 -0.86691357983E+02  0.12500000000E+03  0.80419002446E+02 0. -1.
</event>
<event>
 4    1  0.1653896E-001  0.1250000E+03  0.7546771E-02  0.1126479E+00
        -11   -1    0    0    0    0  0.00000000000E+00  0.00000000000E+00  0.12500000000E+03  0.12500000000E+03  0.00000000000E+00 0.  1.
         11   -1    0    0    0    0 -0.00000000000E+00 -0.00000000000E+00 -0.12500000000E+03  0.12500000000E+03  0.00000000000E+00 0. -1.
         24    1    1    2    0    0  0.74365426244E+02 -0.18890933502E+02  0.57190034591E+02  0.12500000000E+03  0.80419002446E+02 0.  1.
        -24    1    1    2    0    0 -0.74365426244E+02  0.18890933502E+02 -0.57190034591E+02  0.12500000000E+03  0.80419002446E+02 0. -1.
</event>
<event>
 4    1  0.1653896E-001  0.1250000E+03  0.7546771E-02  0.1126479E+00
        -11   -1    0    0    0    0  0.00000000000E+00  0.00000000000E+00  0.12500000000E+03  0.12500000000E+03  0.00000000000E+00 0.  1.
         11   -1    0    0    0    0 -0.00000000000E+00 -0.00000000000E+00 -0.12500000000E+03  0.12500000000E+03  0.00000000000E+00 0. -1.
         24    1    1    2    0    0  0.46404699297E+02  0.13407500559E+02  0.82611299818E+02  0.12500000000E+03  0.80419002446E+02 0.  1.
        -24    1    1    2    0    0 -0.46404699297E+02 -0.13407500559E+02 -0.82611299818E+02  0.12500000000E+03  0.80419002446E+02 0. -1.
</event>
<event>
 4    1  0.1653896E-001  0.1250000E+03  0.7546771E-02  0.1126479E+00
        -11   -1    0    0    0    0  0.00000000000E+00  0.00000000000E+00  0.12500000000E+03  0.12500000000E+03  0.00000000000E+00 0.  1.
         11   -1    0    0    0    0 -0.00000000000E+00 -0.00000000000E+00 -0.12500000000E+03  0.12500000000E+03  0.00000000000E+00 0. -1.
         24    1    1    2    0    0 -0.26813006777E+02 -0.40788433278E+02  0.82311301921E+02  0.12500000000E+03  0.80419002446E+02 0.  1.
        -24    1    1    2    0    0  0.26813006777E+02  0.40788433278E+02 -0.82311301921E+02  0.12500000000E+03  0.80419002446E+02 0. -1.
</event>
<event>
 4    1  0.1653896E-001  0.1250000E+03  0.7546771E-02  0.1126479E+00
        -11   -1    0    0    0    0  0.00000000000E+00  0.00000000000E+00  0.12500000000E+03  0.12500000000E+03  0.00000000000E+00 0.  1.
         11   -1    0    0    0    0 -0.00000000000E+00 -0.00000000000E+00 -0.12500000000E+03  0.12500000000E+03  0.00000000000E+00 0. -1.
         24    1    1    2    0    0  0.59394048878E+02  0.19637574240E+02  0.72418897268E+02  0.12500000000E+03  0.80419002446E+02 0.  1.
        -24    1    1    2    0    0 -0.59394048878E+02 -0.19637574240E+02 -0.72418897268E+02  0.12500000000E+03  0.80419002446E+02 0. -1.
</event>
<event>
 4    1  0.1653896E-001  0.1250000E+03  0.7546771E-02  0.1126479E+00
        -11   -1    0    0    0    0  0.00000000000E+00  0.00000000000E+00  0.12500000000E+03  0.12500000000E+03  0.00000000000E+00 0.  1.
         11   -1    0    0    0    0 -0.00000000000E+00 -0.00000000000E+00 -0.12500000000E+03  0.12500000000E+03  0.00000000000E+00 0. -1.
         24    1    1    2    0    0 -0.37146364939E+02 -0.14217086684E+02  0.87039106519E+02  0.12500000000E+03  0.80419002446E+02 0.  1.
        -24    1    1    2    0    0  0.37146364939E+02  0.14217086684E+02 -0.87039106519E+02  0.12500000000E+03  0.80419002446E+02 0. -1.
</event>
<event>
 4    1  0.1653896E-001  0.1250000E+03  0.7546771E-02  0.1126479E+00
        -11   -1    0    0    0    0  0.00000000000E+00  0.00000000000E+00  0.12500000000E+03  0.12500000000E+03  0.00000000000E+00 0.  1.
         11   -1    0    0    0    0 -0.00000000000E+00 -0.00000000000E+00 -0.12500000000E+03  0.12500000000E+03  0.00000000000E+00 0. -1.
         24    1    1    2    0    0  0.18857787397E+02 -0.38892264147E+02  0.85378918297E+02  0.12500000000E+03  0.80419002446E+02 0.  1.
        -24    1    1    2    0    0 -0.18857787397E+02  0.38892264147E+02 -0.85378918297E+02  0.12500000000E+03  0.80419002446E+02 0. -1.
</event>
<event>
 4    1  0.1653896E-001  0.1250000E+03  0.7546771E-02  0.1126479E+00
        -11   -1    0    0    0    0  0.00000000000E+00  0.00000000000E+00  0.12500000000E+03  0.12500000000E+03  0.00000000000E+00 0.  1.
         11   -1    0    0    0    0 -0.00000000000E+00 -0.00000000000E+00 -0.12500000000E+03  0.12500000000E+03  0.00000000000E+00 0. -1.
         24    1    1    2    0    0  0.13834089529E+01  0.71207256578E+02  0.63917109102E+02  0.12500000000E+03  0.80419002446E+02 0.  1.
        -24    1    1    2    0    0 -0.13834089529E+01 -0.71207256578E+02 -0.63917109102E+02  0.12500000000E+03  0.80419002446E+02 0. -1.
</event>
<event>
 4    1  0.1653896E-001  0.1250000E+03  0.7546771E-02  0.1126479E+00
        -11   -1    0    0    0    0  0.00000000000E+00  0.00000000000E+00  0.12500000000E+03  0.12500000000E+03  0.00000000000E+00 0.  1.
         11   -1    0    0    0    0 -0.00000000000E+00 -0.00000000000E+00 -0.12500000000E+03  0.12500000000E+03  0.00000000000E+00 0. -1.
         24    1    1    2    0    0 -0.20158238721E+02 -0.65388208271E+02  0.66901507281E+02  0.12500000000E+03  0.80419002446E+02 0.  1.
        -24    1    1    2    0    0  0.20158238721E+02  0.65388208271E+02 -0.66901507281E+02  0.12500000000E+03  0.80419002446E+02 0. -1.
</event>
<event>
 4    1  0.1653896E-001  0.1250000E+03  0.7546771E-02  0.1126479E+00
        -11   -1    0    0    0    0  0.00000000000E+00  0.00000000000E+00  0.12500000000E+03  0.12500000000E+03  0.00000000000E+00 0.  1.
         11   -1    0    0    0    0 -0.00000000000E+00 -0.00000000000E+00 -0.12500000000E+03  0.12500000000E+03  0.00000000000E+00 0. -1.
         24    1    1    2    0    0 -0.38373721558E+02  0.39351436491E+02  0.78337130312E+02  0.12500000000E+03  0.80419002446E+02 0.  0.
        -24    1    1    2    0    0  0.38373721558E+02 -0.39351436491E+02 -0.78337130312E+02  0.12500000000E+03  0.80419002446E+02 0.  0.
</event>
<event>
 4    1  0.1653896E-001  0.1250000E+03  0.7546771E-02  0.1126479E+00
        -11   -1    0    0    0    0  0.00000000000E+00  0.00000000000E+00  0.12500000000E+03  0.12500000000E+03  0.00000000000E+00 0.  1.
         11   -1    0    0    0    0 -0.00000000000E+00 -0.00000000000E+00 -0.12500000000E+03  0.12500000000E+03  0.00000000000E+00 0. -1.
         24    1    1    2    0    0  0.55356481863E+02  0.20075358793E+02  0.75434898626E+02  0.12500000000E+03  0.80419002446E+02 0.  1.
        -24    1    1    2    0    0 -0.55356481863E+02 -0.20075358793E+02 -0.75434898626E+02  0.12500000000E+03  0.80419002446E+02 0. -1.
</event>
<event>
 4    1  0.1653896E-001  0.1250000E+03  0.7546771E-02  0.1126479E+00
        -11   -1    0    0    0    0  0.00000000000E+00  0.00000000000E+00  0.12500000000E+03  0.12500000000E+03  0.00000000000E+00 0.  1.
         11   -1    0    0    0    0 -0.00000000000E+00 -0.00000000000E+00 -0.12500000000E+03  0.12500000000E+03  0.00000000000E+00 0. -1.
         24    1    1    2    0    0  0.11981765172E+02  0.76112737911E+02 -0.56754493009E+02  0.12500000000E+03  0.80419002446E+02 0.  0.
        -24    1    1    2    0    0 -0.11981765172E+02 -0.76112737911E+02  0.56754493009E+02  0.12500000000E+03  0.80419002446E+02 0.  1.
</event>
<event>
 4    1  0.1653896E-001  0.1250000E+03  0.7546771E-02  0.1126479E+00
        -11   -1    0    0    0    0  0.00000000000E+00  0.00000000000E+00  0.12500000000E+03  0.12500000000E+03  0.00000000000E+00 0.  1.
         11   -1    0    0    0    0 -0.00000000000E+00 -0.00000000000E+00 -0.12500000000E+03  0.12500000000E+03  0.00000000000E+00 0. -1.
         24    1    1    2    0    0 -0.92293390641E+02  0.17227732557E+02  0.18518080909E+02  0.12500000000E+03  0.80419002446E+02 0.  1.
        -24    1    1    2    0    0  0.92293390641E+02 -0.17227732557E+02 -0.18518080909E+02  0.12500000000E+03  0.80419002446E+02 0. -1.
</event>
<event>
 4    1  0.1653896E-001  0.1250000E+03  0.7546771E-02  0.1126479E+00
        -11   -1    0    0    0    0  0.00000000000E+00  0.00000000000E+00  0.12500000000E+03  0.12500000000E+03  0.00000000000E+00 0.  1.
         11   -1    0    0    0    0 -0.00000000000E+00 -0.00000000000E+00 -0.12500000000E+03  0.12500000000E+03  0.00000000000E+00 0. -1.
         24    1    1    2    0    0  0.15836179865E+02  0.92784462831E+01  0.93919699145E+02  0.12500000000E+03  0.80419002446E+02 0.  1.
        -24    1    1    2    0    0 -0.15836179865E+02 -0.92784462831E+01 -0.93919699145E+02  0.12500000000E+03  0.80419002446E+02 0. -1.
</event>
<event>
 4    1  0.1653896E-001  0.1250000E+03  0.7546771E-02  0.1126479E+00
        -11   -1    0    0    0    0  0.00000000000E+00  0.00000000000E+00  0.12500000000E+03  0.12500000000E+03  0.00000000000E+00 0.  1.
         11   -1    0    0    0    0 -0.00000000000E+00 -0.00000000000E+00 -0.12500000000E+03  0.12500000000E+03  0.00000000000E+00 0. -1.
         24    1    1    2    0    0  0.11619280578E+02  0.21567608439E+02  0.92507376088E+02  0.12500000000E+03  0.80419002446E+02 0.  1.
        -24    1    1    2    0    0 -0.11619280578E+02 -0.21567608439E+02 -0.92507376088E+02  0.12500000000E+03  0.80419002446E+02 0. -1.
</event>
<event>
 4    1  0.1653896E-001  0.1250000E+03  0.7546771E-02  0.1126479E+00
        -11   -1    0    0    0    0  0.00000000000E+00  0.00000000000E+00  0.12500000000E+03  0.12500000000E+03  0.00000000000E+00 0.  1.
         11   -1    0    0    0    0 -0.00000000000E+00 -0.00000000000E+00 -0.12500000000E+03  0.12500000000E+03  0.00000000000E+00 0. -1.
         24    1    1    2    0    0 -0.36451521785E+02 -0.53932586826E+02  0.70145182895E+02  0.12500000000E+03  0.80419002446E+02 0.  1.
        -24    1    1    2    0    0  0.36451521785E+02  0.53932586826E+02 -0.70145182895E+02  0.12500000000E+03  0.80419002446E+02 0. -1.
</event>
<event>
 4    1  0.1653896E-001  0.1250000E+03  0.7546771E-02  0.1126479E+00
        -11   -1    0    0    0    0  0.00000000000E+00  0.00000000000E+00  0.12500000000E+03  0.12500000000E+03  0.00000000000E+00 0.  1.
         11   -1    0    0    0    0 -0.00000000000E+00 -0.00000000000E+00 -0.12500000000E+03  0.12500000000E+03  0.00000000000E+00 0. -1.
         24    1    1    2    0    0  0.21754247145E+02  0.92820549585E+01  0.92727451343E+02  0.12500000000E+03  0.80419002446E+02 0.  1.
        -24    1    1    2    0    0 -0.21754247145E+02 -0.92820549585E+01 -0.92727451343E+02  0.12500000000E+03  0.80419002446E+02 0.  0.
</event>
<event>
 4    1  0.1653896E-001  0.1250000E+03  0.7546771E-02  0.1126479E+00
        -11   -1    0    0    0    0  0.00000000000E+00  0.00000000000E+00  0.12500000000E+03  0.12500000000E+03  0.00000000000E+00 0.  1.
         11   -1    0    0    0    0 -0.00000000000E+00 -0.00000000000E+00 -0.12500000000E+03  0.12500000000E+03  0.00000000000E+00 0. -1.
         24    1    1    2    0    0 -0.48109805128E+02  0.65587587985E+02  0.50413281966E+02  0.12500000000E+03  0.80419002446E+02 0.  1.
        -24    1    1    2    0    0  0.48109805128E+02 -0.65587587985E+02 -0.50413281966E+02  0.12500000000E+03  0.80419002446E+02 0. -1.
</event>
<event>
 4    1  0.1653896E-001  0.1250000E+03  0.7546771E-02  0.1126479E+00
        -11   -1    0    0    0    0  0.00000000000E+00  0.00000000000E+00  0.12500000000E+03  0.12500000000E+03  0.00000000000E+00 0.  1.
         11   -1    0    0    0    0 -0.00000000000E+00 -0.00000000000E+00 -0.12500000000E+03  0.12500000000E+03  0.00000000000E+00 0. -1.
         24    1    1    2    0    0  0.26588625256E+01  0.29662061301E+02  0.90944359996E+02  0.12500000000E+03  0.80419002446E+02 0.  1.
        -24    1    1    2    0    0 -0.26588625256E+01 -0.29662061301E+02 -0.90944359996E+02  0.12500000000E+03  0.80419002446E+02 0. -1.
</event>
<event>
 4    1  0.1653896E-001  0.1250000E+03  0.7546771E-02  0.1126479E+00
        -11   -1    0    0    0    0  0.00000000000E+00  0.00000000000E+00  0.12500000000E+03  0.12500000000E+03  0.00000000000E+00 0.  1.
         11   -1    0    0    0    0 -0.00000000000E+00 -0.00000000000E+00 -0.12500000000E+03  0.12500000000E+03  0.00000000000E+00 0. -1.
         24    1    1    2    0    0  0.41568242097E+02 -0.45674278380E+02  0.73100790618E+02  0.12500000000E+03  0.80419002446E+02 0.  1.
        -24    1    1    2    0    0 -0.41568242097E+02  0.45674278380E+02 -0.73100790618E+02  0.12500000000E+03  0.80419002446E+02 0. -1.
</event>
<event>
 4    1  0.1653896E-001  0.1250000E+03  0.7546771E-02  0.1126479E+00
        -11   -1    0    0    0    0  0.00000000000E+00  0.00000000000E+00  0.12500000000E+03  0.12500000000E+03  0.00000000000E+00 0.  1.
         11   -1    0    0    0    0 -0.00000000000E+00 -0.00000000000E+00 -0.12500000000E+03  0.12500000000E+03  0.00000000000E+00 0. -1.
         24    1    1    2    0    0 -0.81931752889E+02  0.49259612506E+02  0.42967999698E+01  0.12500000000E+03  0.80419002446E+02 0.  1.
        -24    1    1    2    0    0  0.81931752889E+02 -0.49259612506E+02 -0.42967999698E+01  0.12500000000E+03  0.80419002446E+02 0.  0.
</event>
<event>
 4    1  0.1653896E-001  0.1250000E+03  0.7546771E-02  0.1126479E+00
        -11   -1    0    0    0    0  0.00000000000E+00  0.00000000000E+00  0.12500000000E+03  0.12500000000E+03  0.00000000000E+00 0.  1.
         11   -1    0    0    0    0 -0.00000000000E+00 -0.00000000000E+00 -0.12500000000E+03  0.12500000000E+03  0.00000000000E+00 0. -1.
         24    1    1    2    0    0 -0.46160551161E+02  0.56739434161E+02  0.61705949252E+02  0.12500000000E+03  0.80419002446E+02 0.  1.
        -24    1    1    2    0    0  0.46160551161E+02 -0.56739434161E+02 -0.61705949252E+02  0.12500000000E+03  0.80419002446E+02 0. -1.
</event>
<event>
 4    1  0.1653896E-001  0.1250000E+03  0.7546771E-02  0.1126479E+00
        -11   -1    0    0    0    0  0.00000000000E+00  0.00000000000E+00  0.12500000000E+03  0.12500000000E+03  0.00000000000E+00 0.  1.
         11   -1    0    0    0    0 -0.00000000000E+00 -0.00000000000E+00 -0.12500000000E+03  0.12500000000E+03  0.00000000000E+00 0. -1.
         24    1    1    2    0    0  0.23773447496E+02  0.15147123213E+02  0.91450379431E+02  0.12500000000E+03  0.80419002446E+02 0.  1.
        -24    1    1    2    0    0 -0.23773447496E+02 -0.15147123213E+02 -0.91450379431E+02  0.12500000000E+03  0.80419002446E+02 0. -1.
</event>
<event>
 4    1  0.1653896E-001  0.1250000E+03  0.7546771E-02  0.1126479E+00
        -11   -1    0    0    0    0  0.00000000000E+00  0.00000000000E+00  0.12500000000E+03  0.12500000000E+03  0.00000000000E+00 0.  1.
         11   -1    0    0    0    0 -0.00000000000E+00 -0.00000000000E+00 -0.12500000000E+03  0.12500000000E+03  0.00000000000E+00 0. -1.
         24    1    1    2    0    0  0.60748317438E+02  0.29661539338E+02  0.67731964818E+02  0.12500000000E+03  0.80419002446E+02 0.  0.
        -24    1    1    2    0    0 -0.60748317438E+02 -0.29661539338E+02 -0.67731964818E+02  0.12500000000E+03  0.80419002446E+02 0. -1.
</event>
<event>
 4    1  0.1653896E-001  0.1250000E+03  0.7546771E-02  0.1126479E+00
        -11   -1    0    0    0    0  0.00000000000E+00  0.00000000000E+00  0.12500000000E+03  0.12500000000E+03  0.00000000000E+00 0.  1.
         11   -1    0    0    0    0 -0.00000000000E+00 -0.00000000000E+00 -0.12500000000E+03  0.12500000000E+03  0.00000000000E+00 0. -1.
         24    1    1    2    0    0 -0.45857586647E+02 -0.69849893746E+02  0.46646094543E+02  0.12500000000E+03  0.80419002446E+02 0.  1.
        -24    1    1    2    0    0  0.45857586647E+02  0.69849893746E+02 -0.46646094543E+02  0.12500000000E+03  0.80419002446E+02 0. -1.
</event>
<event>
 4    1  0.1653896E-001  0.1250000E+03  0.7546771E-02  0.1126479E+00
        -11   -1    0    0    0    0  0.00000000000E+00  0.00000000000E+00  0.12500000000E+03  0.12500000000E+03  0.00000000000E+00 0.  1.
         11   -1    0    0    0    0 -0.00000000000E+00 -0.00000000000E+00 -0.12500000000E+03  0.12500000000E+03  0.00000000000E+00 0. -1.
         24    1    1    2    0    0  0.15295638867E+02  0.75067107124E+02  0.57347684394E+02  0.12500000000E+03  0.80419002446E+02 0.  1.
        -24    1    1    2    0    0 -0.15295638867E+02 -0.75067107124E+02 -0.57347684394E+02  0.12500000000E+03  0.80419002446E+02 0. -1.
</event>
<event>
 4    1  0.1653896E-001  0.1250000E+03  0.7546771E-02  0.1126479E+00
        -11   -1    0    0    0    0  0.00000000000E+00  0.00000000000E+00  0.12500000000E+03  0.12500000000E+03  0.00000000000E+00 0.  1.
         11   -1    0    0    0    0 -0.00000000000E+00 -0.00000000000E+00 -0.12500000000E+03  0.12500000000E+03  0.00000000000E+00 0. -1.
         24    1    1    2    0    0 -0.20891213380E+02  0.40512661391E+02  0.84143125187E+02  0.12500000000E+03  0.80419002446E+02 0.  1.
        -24    1    1    2    0    0  0.20891213380E+02 -0.40512661391E+02 -0.84143125187E+02  0.12500000000E+03  0.80419002446E+02 0. -1.
</event>
<event>
 4    1  0.1653896E-001  0.1250000E+03  0.7546771E-02  0.1126479E+00
        -11   -1    0    0    0    0  0.00000000000E+00  0.00000000000E+00  0.12500000000E+03  0.12500000000E+03  0.00000000000E+00 0. -1.
         11   -1    0    0    0    0 -0.00000000000E+00 -0.00000000000E+00 -0.12500000000E+03  0.12500000000E+03  0.00000000000E+00 0.  1.
         24    1    1    2    0    0 -0.71137072085E+02 -0.48246699537E+01 -0.63828078309E+02  0.12500000000E+03  0.80419002446E+02 0.  0.
        -24    1    1    2    0    0  0.71137072085E+02  0.48246699537E+01  0.63828078309E+02  0.12500000000E+03  0.80419002446E+02 0. -1.
</event>
<event>
 4    1  0.1653896E-001  0.1250000E+03  0.7546771E-02  0.1126479E+00
        -11   -1    0    0    0    0  0.00000000000E+00  0.00000000000E+00  0.12500000000E+03  0.12500000000E+03  0.00000000000E+00 0.  1.
         11   -1    0    0    0    0 -0.00000000000E+00 -0.00000000000E+00 -0.12500000000E+03  0.12500000000E+03  0.00000000000E+00 0. -1.
         24    1    1    2    0    0 -0.99128234925E+01  0.47621611627E+02  0.82411783636E+02  0.12500000000E+03  0.80419002446E+02 0.  1.
        -24    1    1    2    0    0  0.99128234925E+01 -0.47621611627E+02 -0.82411783636E+02  0.12500000000E+03  0.80419002446E+02 0. -1.
</event>
<event>
 4    1  0.1653896E-001  0.1250000E+03  0.7546771E-02  0.1126479E+00
        -11   -1    0    0    0    0  0.00000000000E+00  0.00000000000E+00  0.12500000000E+03  0.12500000000E+03  0.00000000000E+00 0.  1.
         11   -1    0    0    0    0 -0.00000000000E+00 -0.00000000000E+00 -0.12500000000E+03  0.12500000000E+03  0.00000000000E+00 0. -1.
         24    1    1    2    0    0 -0.63358655758E+02  0.61827777284E+02  0.36342684853E+02  0.12500000000E+03  0.80419002446E+02 0.  1.
        -24    1    1    2    0    0  0.63358655758E+02 -0.61827777284E+02 -0.36342684853E+02  0.12500000000E+03  0.80419002446E+02 0.  0.
</event>
<event>
 4    1  0.1653896E-001  0.1250000E+03  0.7546771E-02  0.1126479E+00
        -11   -1    0    0    0    0  0.00000000000E+00  0.00000000000E+00  0.12500000000E+03  0.12500000000E+03  0.00000000000E+00 0.  1.
         11   -1    0    0    0    0 -0.00000000000E+00 -0.00000000000E+00 -0.12500000000E+03  0.12500000000E+03  0.00000000000E+00 0. -1.
         24    1    1    2    0    0 -0.70035346163E+02  0.39185984286E+02  0.52127660306E+02  0.12500000000E+03  0.80419002446E+02 0.  1.
        -24    1    1    2    0    0  0.70035346163E+02 -0.39185984286E+02 -0.52127660306E+02  0.12500000000E+03  0.80419002446E+02 0. -1.
</event>
<event>
 4    1  0.1653896E-001  0.1250000E+03  0.7546771E-02  0.1126479E+00
        -11   -1    0    0    0    0  0.00000000000E+00  0.00000000000E+00  0.12500000000E+03  0.12500000000E+03  0.00000000000E+00 0.  1.
         11   -1    0    0    0    0 -0.00000000000E+00 -0.00000000000E+00 -0.12500000000E+03  0.12500000000E+03  0.00000000000E+00 0. -1.
         24    1    1    2    0    0 -0.32970093546E+02  0.37351396658E+02  0.81704529525E+02  0.12500000000E+03  0.80419002446E+02 0.  1.
        -24    1    1    2    0    0  0.32970093546E+02 -0.37351396658E+02 -0.81704529525E+02  0.12500000000E+03  0.80419002446E+02 0. -1.
</event>
<event>
 4    1  0.1653896E-001  0.1250000E+03  0.7546771E-02  0.1126479E+00
        -11   -1    0    0    0    0  0.00000000000E+00  0.00000000000E+00  0.12500000000E+03  0.12500000000E+03  0.00000000000E+00 0.  1.
         11   -1    0    0    0    0 -0.00000000000E+00 -0.00000000000E+00 -0.12500000000E+03  0.12500000000E+03  0.00000000000E+00 0. -1.
         24    1    1    2    0    0  0.10843659529E+02 -0.28644276427E+02  0.90662586118E+02  0.12500000000E+03  0.80419002446E+02 0.  1.
        -24    1    1    2    0    0 -0.10843659529E+02  0.28644276427E+02 -0.90662586118E+02  0.12500000000E+03  0.80419002446E+02 0. -1.
</event>
<event>
 4    1  0.1653896E-001  0.1250000E+03  0.7546771E-02  0.1126479E+00
        -11   -1    0    0    0    0  0.00000000000E+00  0.00000000000E+00  0.12500000000E+03  0.12500000000E+03  0.00000000000E+00 0.  1.
         11   -1    0    0    0    0 -0.00000000000E+00 -0.00000000000E+00 -0.12500000000E+03  0.12500000000E+03  0.00000000000E+00 0. -1.
         24    1    1    2    0    0  0.27648223172E+02 -0.67630261886E+02  0.61802164026E+02  0.12500000000E+03  0.80419002446E+02 0.  1.
        -24    1    1    2    0    0 -0.27648223172E+02  0.67630261886E+02 -0.61802164026E+02  0.12500000000E+03  0.80419002446E+02 0. -1.
</event>
<event>
 4    1  0.1653896E-001  0.1250000E+03  0.7546771E-02  0.1126479E+00
        -11   -1    0    0    0    0  0.00000000000E+00  0.00000000000E+00  0.12500000000E+03  0.12500000000E+03  0.00000000000E+00 0.  1.
         11   -1    0    0    0    0 -0.00000000000E+00 -0.00000000000E+00 -0.12500000000E+03  0.12500000000E+03  0.00000000000E+00 0. -1.
         24    1    1    2    0    0 -0.57997807259E+02 -0.25792314101E+02  0.71615605367E+02  0.12500000000E+03  0.80419002446E+02 0.  1.
        -24    1    1    2    0    0  0.57997807259E+02  0.25792314101E+02 -0.71615605367E+02  0.12500000000E+03  0.80419002446E+02 0. -1.
</event>
<event>
 4    1  0.1653896E-001  0.1250000E+03  0.7546771E-02  0.1126479E+00
        -11   -1    0    0    0    0  0.00000000000E+00  0.00000000000E+00  0.12500000000E+03  0.12500000000E+03  0.00000000000E+00 0.  1.
         11   -1    0    0    0    0 -0.00000000000E+00 -0.00000000000E+00 -0.12500000000E+03  0.12500000000E+03  0.00000000000E+00 0. -1.
         24    1    1    2    0    0 -0.54665698383E+02 -0.23954856625E+02  0.74803812135E+02  0.12500000000E+03  0.80419002446E+02 0.  1.
        -24    1    1    2    0    0  0.54665698383E+02  0.23954856625E+02 -0.74803812135E+02  0.12500000000E+03  0.80419002446E+02 0. -1.
</event>
<event>
 4    1  0.1653896E-001  0.1250000E+03  0.7546771E-02  0.1126479E+00
        -11   -1    0    0    0    0  0.00000000000E+00  0.00000000000E+00  0.12500000000E+03  0.12500000000E+03  0.00000000000E+00 0.  1.
         11   -1    0    0    0    0 -0.00000000000E+00 -0.00000000000E+00 -0.12500000000E+03  0.12500000000E+03  0.00000000000E+00 0. -1.
         24    1    1    2    0    0  0.12098563031E+02  0.23838943649E+02  0.91886416754E+02  0.12500000000E+03  0.80419002446E+02 0.  1.
        -24    1    1    2    0    0 -0.12098563031E+02 -0.23838943649E+02 -0.91886416754E+02  0.12500000000E+03  0.80419002446E+02 0. -1.
</event>
<event>
 4    1  0.1653896E-001  0.1250000E+03  0.7546771E-02  0.1126479E+00
        -11   -1    0    0    0    0  0.00000000000E+00  0.00000000000E+00  0.12500000000E+03  0.12500000000E+03  0.00000000000E+00 0.  1.
         11   -1    0    0    0    0 -0.00000000000E+00 -0.00000000000E+00 -0.12500000000E+03  0.12500000000E+03  0.00000000000E+00 0. -1.
         24    1    1    2    0    0  0.74230452389E+01 -0.72727072300E+02  0.61753181292E+02  0.12500000000E+03  0.80419002446E+02 0.  1.
        -24    1    1    2    0    0 -0.74230452389E+01  0.72727072300E+02 -0.61753181292E+02  0.12500000000E+03  0.80419002446E+02 0. -1.
</event>
<event>
 4    1  0.1653896E-001  0.1250000E+03  0.7546771E-02  0.1126479E+00
        -11   -1    0    0    0    0  0.00000000000E+00  0.00000000000E+00  0.12500000000E+03  0.12500000000E+03  0.00000000000E+00 0.  1.
         11   -1    0    0    0    0 -0.00000000000E+00 -0.00000000000E+00 -0.12500000000E+03  0.12500000000E+03  0.00000000000E+00 0. -1.
         24    1    1    2    0    0 -0.73645816150E+02  0.24380202038E+02 -0.56032879257E+02  0.12500000000E+03  0.80419002446E+02 0. -1.
        -24    1    1    2    0    0  0.73645816150E+02 -0.24380202038E+02  0.56032879257E+02  0.12500000000E+03  0.80419002446E+02 0.  1.
</event>
<event>
 4    1  0.1653896E-001  0.1250000E+03  0.7546771E-02  0.1126479E+00
        -11   -1    0    0    0    0  0.00000000000E+00  0.00000000000E+00  0.12500000000E+03  0.12500000000E+03  0.00000000000E+00 0.  1.
         11   -1    0    0    0    0 -0.00000000000E+00 -0.00000000000E+00 -0.12500000000E+03  0.12500000000E+03  0.00000000000E+00 0. -1.
         24    1    1    2    0    0  0.64829671338E+02 -0.69810077194E+02  0.90250142391E+01  0.12500000000E+03  0.80419002446E+02 0.  1.
        -24    1    1    2    0    0 -0.64829671338E+02  0.69810077194E+02 -0.90250142391E+01  0.12500000000E+03  0.80419002446E+02 0. -1.
</event>
<event>
 4    1  0.1653896E-001  0.1250000E+03  0.7546771E-02  0.1126479E+00
        -11   -1    0    0    0    0  0.00000000000E+00  0.00000000000E+00  0.12500000000E+03  0.12500000000E+03  0.00000000000E+00 0.  1.
         11   -1    0    0    0    0 -0.00000000000E+00 -0.00000000000E+00 -0.12500000000E+03  0.12500000000E+03  0.00000000000E+00 0. -1.
         24    1    1    2    0    0  0.38308404724E+01  0.23982725438E+02  0.92563154589E+02  0.12500000000E+03  0.80419002446E+02 0.  1.
        -24    1    1    2    0    0 -0.38308404724E+01 -0.23982725438E+02 -0.92563154589E+02  0.12500000000E+03  0.80419002446E+02 0. -1.
</event>
<event>
 4    1  0.1653896E-001  0.1250000E+03  0.7546771E-02  0.1126479E+00
        -11   -1    0    0    0    0  0.00000000000E+00  0.00000000000E+00  0.12500000000E+03  0.12500000000E+03  0.00000000000E+00 0.  1.
         11   -1    0    0    0    0 -0.00000000000E+00 -0.00000000000E+00 -0.12500000000E+03  0.12500000000E+03  0.00000000000E+00 0. -1.
         24    1    1    2    0    0  0.37145357808E+02  0.51893398031E+02  0.71309758657E+02  0.12500000000E+03  0.80419002446E+02 0.  1.
        -24    1    1    2    0    0 -0.37145357808E+02 -0.51893398031E+02 -0.71309758657E+02  0.12500000000E+03  0.80419002446E+02 0. -1.
</event>
<event>
 4    1  0.1653896E-001  0.1250000E+03  0.7546771E-02  0.1126479E+00
        -11   -1    0    0    0    0  0.00000000000E+00  0.00000000000E+00  0.12500000000E+03  0.12500000000E+03  0.00000000000E+00 0.  1.
         11   -1    0    0    0    0 -0.00000000000E+00 -0.00000000000E+00 -0.12500000000E+03  0.12500000000E+03  0.00000000000E+00 0. -1.
         24    1    1    2    0    0  0.80673608392E+02  0.43234948897E+02  0.27933709897E+02  0.12500000000E+03  0.80419002446E+02 0.  1.
        -24    1    1    2    0    0 -0.80673608392E+02 -0.43234948897E+02 -0.27933709897E+02  0.12500000000E+03  0.80419002446E+02 0. -1.
</event>
<event>
 4    1  0.1653896E-001  0.1250000E+03  0.7546771E-02  0.1126479E+00
        -11   -1    0    0    0    0  0.00000000000E+00  0.00000000000E+00  0.12500000000E+03  0.12500000000E+03  0.00000000000E+00 0.  1.
         11   -1    0    0    0    0 -0.00000000000E+00 -0.00000000000E+00 -0.12500000000E+03  0.12500000000E+03  0.00000000000E+00 0. -1.
         24    1    1    2    0    0 -0.23025731979E+02  0.80838690332E+02  0.45746102106E+02  0.12500000000E+03  0.80419002446E+02 0.  1.
        -24    1    1    2    0    0  0.23025731979E+02 -0.80838690332E+02 -0.45746102106E+02  0.12500000000E+03  0.80419002446E+02 0. -1.
</event>
<event>
 4    1  0.1653896E-001  0.1250000E+03  0.7546771E-02  0.1126479E+00
        -11   -1    0    0    0    0  0.00000000000E+00  0.00000000000E+00  0.12500000000E+03  0.12500000000E+03  0.00000000000E+00 0.  1.
         11   -1    0    0    0    0 -0.00000000000E+00 -0.00000000000E+00 -0.12500000000E+03  0.12500000000E+03  0.00000000000E+00 0. -1.
         24    1    1    2    0    0  0.11844774609E+01 -0.14369751292E+02  0.94603865178E+02  0.12500000000E+03  0.80419002446E+02 0.  1.
        -24    1    1    2    0    0 -0.11844774609E+01  0.14369751292E+02 -0.94603865178E+02  0.12500000000E+03  0.80419002446E+02 0. -1.
</event>
<event>
 4    1  0.1653896E-001  0.1250000E+03  0.7546771E-02  0.1126479E+00
        -11   -1    0    0    0    0  0.00000000000E+00  0.00000000000E+00  0.12500000000E+03  0.12500000000E+03  0.00000000000E+00 0.  1.
         11   -1    0    0    0    0 -0.00000000000E+00 -0.00000000000E+00 -0.12500000000E+03  0.12500000000E+03  0.00000000000E+00 0. -1.
         24    1    1    2    0    0 -0.68883967303E+02  0.47428551466E+02  0.46511456654E+02  0.12500000000E+03  0.80419002446E+02 0.  1.
        -24    1    1    2    0    0  0.68883967303E+02 -0.47428551466E+02 -0.46511456654E+02  0.12500000000E+03  0.80419002446E+02 0. -1.
</event>
<event>
 4    1  0.1653896E-001  0.1250000E+03  0.7546771E-02  0.1126479E+00
        -11   -1    0    0    0    0  0.00000000000E+00  0.00000000000E+00  0.12500000000E+03  0.12500000000E+03  0.00000000000E+00 0.  1.
         11   -1    0    0    0    0 -0.00000000000E+00 -0.00000000000E+00 -0.12500000000E+03  0.12500000000E+03  0.00000000000E+00 0. -1.
         24    1    1    2    0    0 -0.29844252025E+02 -0.77719259773E+02  0.47189207739E+02  0.12500000000E+03  0.80419002446E+02 0.  1.
        -24    1    1    2    0    0  0.29844252025E+02  0.77719259773E+02 -0.47189207739E+02  0.12500000000E+03  0.80419002446E+02 0. -1.
</event>
<event>
 4    1  0.1653896E-001  0.1250000E+03  0.7546771E-02  0.1126479E+00
        -11   -1    0    0    0    0  0.00000000000E+00  0.00000000000E+00  0.12500000000E+03  0.12500000000E+03  0.00000000000E+00 0.  1.
         11   -1    0    0    0    0 -0.00000000000E+00 -0.00000000000E+00 -0.12500000000E+03  0.12500000000E+03  0.00000000000E+00 0. -1.
         24    1    1    2    0    0  0.12471647007E+02  0.28108959329E+02  0.90620794920E+02  0.12500000000E+03  0.80419002446E+02 0.  1.
        -24    1    1    2    0    0 -0.12471647007E+02 -0.28108959329E+02 -0.90620794920E+02  0.12500000000E+03  0.80419002446E+02 0. -1.
</event>
<event>
 4    1  0.1653896E-001  0.1250000E+03  0.7546771E-02  0.1126479E+00
        -11   -1    0    0    0    0  0.00000000000E+00  0.00000000000E+00  0.12500000000E+03  0.12500000000E+03  0.00000000000E+00 0.  1.
         11   -1    0    0    0    0 -0.00000000000E+00 -0.00000000000E+00 -0.12500000000E+03  0.12500000000E+03  0.00000000000E+00 0. -1.
         24    1    1    2    0    0  0.33040721250E+02  0.10505213487E+02  0.89194928525E+02  0.12500000000E+03  0.80419002446E+02 0.  0.
        -24    1    1    2    0    0 -0.33040721250E+02 -0.10505213487E+02 -0.89194928525E+02  0.12500000000E+03  0.80419002446E+02 0.  0.
</event>
<event>
 4    1  0.1653896E-001  0.1250000E+03  0.7546771E-02  0.1126479E+00
        -11   -1    0    0    0    0  0.00000000000E+00  0.00000000000E+00  0.12500000000E+03  0.12500000000E+03  0.00000000000E+00 0.  1.
         11   -1    0    0    0    0 -0.00000000000E+00 -0.00000000000E+00 -0.12500000000E+03  0.12500000000E+03  0.00000000000E+00 0. -1.
         24    1    1    2    0    0  0.10085848214E+02 -0.47334762100E+02  0.82555920493E+02  0.12500000000E+03  0.80419002446E+02 0.  1.
        -24    1    1    2    0    0 -0.10085848214E+02  0.47334762100E+02 -0.82555920493E+02  0.12500000000E+03  0.80419002446E+02 0. -1.
</event>
<event>
 4    1  0.1653896E-001  0.1250000E+03  0.7546771E-02  0.1126479E+00
        -11   -1    0    0    0    0  0.00000000000E+00  0.00000000000E+00  0.12500000000E+03  0.12500000000E+03  0.00000000000E+00 0.  1.
         11   -1    0    0    0    0 -0.00000000000E+00 -0.00000000000E+00 -0.12500000000E+03  0.12500000000E+03  0.00000000000E+00 0. -1.
         24    1    1    2    0    0  0.15574195061E+02  0.36491011744E+02  0.87084066027E+02  0.12500000000E+03  0.80419002446E+02 0.  1.
        -24    1    1    2    0    0 -0.15574195061E+02 -0.36491011744E+02 -0.87084066027E+02  0.12500000000E+03  0.80419002446E+02 0. -1.
</event>
<event>
 4    1  0.1653896E-001  0.1250000E+03  0.7546771E-02  0.1126479E+00
        -11   -1    0    0    0    0  0.00000000000E+00  0.00000000000E+00  0.12500000000E+03  0.12500000000E+03  0.00000000000E+00 0.  1.
         11   -1    0    0    0    0 -0.00000000000E+00 -0.00000000000E+00 -0.12500000000E+03  0.12500000000E+03  0.00000000000E+00 0. -1.
         24    1    1    2    0    0  0.56482081597E+00 -0.99183659834E+01  0.95179257400E+02  0.12500000000E+03  0.80419002446E+02 0.  1.
        -24    1    1    2    0    0 -0.56482081597E+00  0.99183659834E+01 -0.95179257400E+02  0.12500000000E+03  0.80419002446E+02 0.  0.
</event>
<event>
 4    1  0.1653896E-001  0.1250000E+03  0.7546771E-02  0.1126479E+00
        -11   -1    0    0    0    0  0.00000000000E+00  0.00000000000E+00  0.12500000000E+03  0.12500000000E+03  0.00000000000E+00 0.  1.
         11   -1    0    0    0    0 -0.00000000000E+00 -0.00000000000E+00 -0.12500000000E+03  0.12500000000E+03  0.00000000000E+00 0. -1.
         24    1    1    2    0    0  0.72433842548E+02 -0.11386074682E+02  0.61493737914E+02  0.12500000000E+03  0.80419002446E+02 0.  1.
        -24    1    1    2    0    0 -0.72433842548E+02  0.11386074682E+02 -0.61493737914E+02  0.12500000000E+03  0.80419002446E+02 0. -1.
</event>
<event>
 4    1  0.1653896E-001  0.1250000E+03  0.7546771E-02  0.1126479E+00
        -11   -1    0    0    0    0  0.00000000000E+00  0.00000000000E+00  0.12500000000E+03  0.12500000000E+03  0.00000000000E+00 0.  1.
         11   -1    0    0    0    0 -0.00000000000E+00 -0.00000000000E+00 -0.12500000000E+03  0.12500000000E+03  0.00000000000E+00 0. -1.
         24    1    1    2    0    0 -0.46815926204E+02 -0.28811965818E+02  0.78332137243E+02  0.12500000000E+03  0.80419002446E+02 0.  1.
        -24    1    1    2    0    0  0.46815926204E+02  0.28811965818E+02 -0.78332137243E+02  0.12500000000E+03  0.80419002446E+02 0. -1.
</event>
<event>
 4    1  0.1653896E-001  0.1250000E+03  0.7546771E-02  0.1126479E+00
        -11   -1    0    0    0    0  0.00000000000E+00  0.00000000000E+00  0.12500000000E+03  0.12500000000E+03  0.00000000000E+00 0. -1.
         11   -1    0    0    0    0 -0.00000000000E+00 -0.00000000000E+00 -0.12500000000E+03  0.12500000000E+03  0.00000000000E+00 0.  1.
         24    1    1    2    0    0  0.22402342721E+02  0.28160735315E+02  0.88672950062E+02  0.12500000000E+03  0.80419002446E+02 0. -1.
        -24    1    1    2    0    0 -0.22402342721E+02 -0.28160735315E+02 -0.88672950062E+02  0.12500000000E+03  0.80419002446E+02 0.  0.
</event>
<event>
 4    1  0.1653896E-001  0.1250000E+03  0.7546771E-02  0.1126479E+00
        -11   -1    0    0    0    0  0.00000000000E+00  0.00000000000E+00  0.12500000000E+03  0.12500000000E+03  0.00000000000E+00 0.  1.
         11   -1    0    0    0    0 -0.00000000000E+00 -0.00000000000E+00 -0.12500000000E+03  0.12500000000E+03  0.00000000000E+00 0. -1.
         24    1    1    2    0    0 -0.18609585971E+02  0.77652813806E+02 -0.52740002500E+02  0.12500000000E+03  0.80419002446E+02 0.  0.
        -24    1    1    2    0    0  0.18609585971E+02 -0.77652813806E+02  0.52740002500E+02  0.12500000000E+03  0.80419002446E+02 0.  1.
</event>
<event>
 4    1  0.1653896E-001  0.1250000E+03  0.7546771E-02  0.1126479E+00
        -11   -1    0    0    0    0  0.00000000000E+00  0.00000000000E+00  0.12500000000E+03  0.12500000000E+03  0.00000000000E+00 0.  1.
         11   -1    0    0    0    0 -0.00000000000E+00 -0.00000000000E+00 -0.12500000000E+03  0.12500000000E+03  0.00000000000E+00 0. -1.
         24    1    1    2    0    0 -0.11464506737E+02 -0.35214060868E+02  0.88240121533E+02  0.12500000000E+03  0.80419002446E+02 0.  1.
        -24    1    1    2    0    0  0.11464506737E+02  0.35214060868E+02 -0.88240121533E+02  0.12500000000E+03  0.80419002446E+02 0. -1.
</event>
<event>
 4    1  0.1653896E-001  0.1250000E+03  0.7546771E-02  0.1126479E+00
        -11   -1    0    0    0    0  0.00000000000E+00  0.00000000000E+00  0.12500000000E+03  0.12500000000E+03  0.00000000000E+00 0.  1.
         11   -1    0    0    0    0 -0.00000000000E+00 -0.00000000000E+00 -0.12500000000E+03  0.12500000000E+03  0.00000000000E+00 0. -1.
         24    1    1    2    0    0 -0.15001350190E+01  0.86571203729E+01  0.95292118811E+02  0.12500000000E+03  0.80419002446E+02 0.  0.
        -24    1    1    2    0    0  0.15001350190E+01 -0.86571203729E+01 -0.95292118811E+02  0.12500000000E+03  0.80419002446E+02 0. -1.
</event>
<event>
 4    1  0.1653896E-001  0.1250000E+03  0.7546771E-02  0.1126479E+00
        -11   -1    0    0    0    0  0.00000000000E+00  0.00000000000E+00  0.12500000000E+03  0.12500000000E+03  0.00000000000E+00 0.  1.
         11   -1    0    0    0    0 -0.00000000000E+00 -0.00000000000E+00 -0.12500000000E+03  0.12500000000E+03  0.00000000000E+00 0. -1.
         24    1    1    2    0    0 -0.30149215868E+02  0.83970931177E+02  0.34607680440E+02  0.12500000000E+03  0.80419002446E+02 0.  1.
        -24    1    1    2    0    0  0.30149215868E+02 -0.83970931177E+02 -0.34607680440E+02  0.12500000000E+03  0.80419002446E+02 0.  0.
</event>
<event>
 4    1  0.1653896E-001  0.1250000E+03  0.7546771E-02  0.1126479E+00
        -11   -1    0    0    0    0  0.00000000000E+00  0.00000000000E+00  0.12500000000E+03  0.12500000000E+03  0.00000000000E+00 0.  1.
         11   -1    0    0    0    0 -0.00000000000E+00 -0.00000000000E+00 -0.12500000000E+03  0.12500000000E+03  0.00000000000E+00 0. -1.
         24    1    1    2    0    0 -0.80731032274E+02 -0.89078972455E+01  0.50605670041E+02  0.12500000000E+03  0.80419002446E+02 0.  1.
        -24    1    1    2    0    0  0.80731032274E+02  0.89078972455E+01 -0.50605670041E+02  0.12500000000E+03  0.80419002446E+02 0. -1.
</event>
<event>
 4    1  0.1653896E-001  0.1250000E+03  0.7546771E-02  0.1126479E+00
        -11   -1    0    0    0    0  0.00000000000E+00  0.00000000000E+00  0.12500000000E+03  0.12500000000E+03  0.00000000000E+00 0.  1.
         11   -1    0    0    0    0 -0.00000000000E+00 -0.00000000000E+00 -0.12500000000E+03  0.12500000000E+03  0.00000000000E+00 0. -1.
         24    1    1    2    0    0 -0.26040644677E+02  0.23426749296E+02  0.89055355189E+02  0.12500000000E+03  0.80419002446E+02 0.  1.
        -24    1    1    2    0    0  0.26040644677E+02 -0.23426749296E+02 -0.89055355189E+02  0.12500000000E+03  0.80419002446E+02 0. -1.
</event>
<event>
 4    1  0.1653896E-001  0.1250000E+03  0.7546771E-02  0.1126479E+00
        -11   -1    0    0    0    0  0.00000000000E+00  0.00000000000E+00  0.12500000000E+03  0.12500000000E+03  0.00000000000E+00 0.  1.
         11   -1    0    0    0    0 -0.00000000000E+00 -0.00000000000E+00 -0.12500000000E+03  0.12500000000E+03  0.00000000000E+00 0. -1.
         24    1    1    2    0    0  0.37907642269E+02 -0.79830928808E+02  0.36712634185E+02  0.12500000000E+03  0.80419002446E+02 0.  1.
        -24    1    1    2    0    0 -0.37907642269E+02  0.79830928808E+02 -0.36712634185E+02  0.12500000000E+03  0.80419002446E+02 0. -1.
</event>
<event>
 4    1  0.1653896E-001  0.1250000E+03  0.7546771E-02  0.1126479E+00
        -11   -1    0    0    0    0  0.00000000000E+00  0.00000000000E+00  0.12500000000E+03  0.12500000000E+03  0.00000000000E+00 0.  1.
         11   -1    0    0    0    0 -0.00000000000E+00 -0.00000000000E+00 -0.12500000000E+03  0.12500000000E+03  0.00000000000E+00 0. -1.
         24    1    1    2    0    0  0.13856178094E+02  0.17970561480E+02  0.92966925809E+02  0.12500000000E+03  0.80419002446E+02 0.  1.
        -24    1    1    2    0    0 -0.13856178094E+02 -0.17970561480E+02 -0.92966925809E+02  0.12500000000E+03  0.80419002446E+02 0. -1.
</event>
<event>
 4    1  0.1653896E-001  0.1250000E+03  0.7546771E-02  0.1126479E+00
        -11   -1    0    0    0    0  0.00000000000E+00  0.00000000000E+00  0.12500000000E+03  0.12500000000E+03  0.00000000000E+00 0.  1.
         11   -1    0    0    0    0 -0.00000000000E+00 -0.00000000000E+00 -0.12500000000E+03  0.12500000000E+03  0.00000000000E+00 0. -1.
         24    1    1    2    0    0  0.50846679330E+02 -0.54446461872E+01 -0.80887298599E+02  0.12500000000E+03  0.80419002446E+02 0. -1.
        -24    1    1    2    0    0 -0.50846679330E+02  0.54446461872E+01  0.80887298599E+02  0.12500000000E+03  0.80419002446E+02 0.  1.
</event>
<event>
 4    1  0.1653896E-001  0.1250000E+03  0.7546771E-02  0.1126479E+00
        -11   -1    0    0    0    0  0.00000000000E+00  0.00000000000E+00  0.12500000000E+03  0.12500000000E+03  0.00000000000E+00 0.  1.
         11   -1    0    0    0    0 -0.00000000000E+00 -0.00000000000E+00 -0.12500000000E+03  0.12500000000E+03  0.00000000000E+00 0. -1.
         24    1    1    2    0    0 -0.12608508311E+02  0.64679148762E+02  0.69393207732E+02  0.12500000000E+03  0.80419002446E+02 0.  1.
        -24    1    1    2    0    0  0.12608508311E+02 -0.64679148762E+02 -0.69393207732E+02  0.12500000000E+03  0.80419002446E+02 0.  0.
</event>
<event>
 4    1  0.1653896E-001  0.1250000E+03  0.7546771E-02  0.1126479E+00
        -11   -1    0    0    0    0  0.00000000000E+00  0.00000000000E+00  0.12500000000E+03  0.12500000000E+03  0.00000000000E+00 0.  1.
         11   -1    0    0    0    0 -0.00000000000E+00 -0.00000000000E+00 -0.12500000000E+03  0.12500000000E+03  0.00000000000E+00 0. -1.
         24    1    1    2    0    0 -0.21378537956E+02  0.40249418021E+01  0.93190890134E+02  0.12500000000E+03  0.80419002446E+02 0.  1.
        -24    1    1    2    0    0  0.21378537956E+02 -0.40249418021E+01 -0.93190890134E+02  0.12500000000E+03  0.80419002446E+02 0.  0.
</event>
<event>
 4    1  0.1653896E-001  0.1250000E+03  0.7546771E-02  0.1126479E+00
        -11   -1    0    0    0    0  0.00000000000E+00  0.00000000000E+00  0.12500000000E+03  0.12500000000E+03  0.00000000000E+00 0.  1.
         11   -1    0    0    0    0 -0.00000000000E+00 -0.00000000000E+00 -0.12500000000E+03  0.12500000000E+03  0.00000000000E+00 0. -1.
         24    1    1    2    0    0 -0.44262520100E+02  0.73891149256E+02  0.41697858718E+02  0.12500000000E+03  0.80419002446E+02 0.  1.
        -24    1    1    2    0    0  0.44262520100E+02 -0.73891149256E+02 -0.41697858718E+02  0.12500000000E+03  0.80419002446E+02 0. -1.
</event>
<event>
 4    1  0.1653896E-001  0.1250000E+03  0.7546771E-02  0.1126479E+00
        -11   -1    0    0    0    0  0.00000000000E+00  0.00000000000E+00  0.12500000000E+03  0.12500000000E+03  0.00000000000E+00 0.  1.
         11   -1    0    0    0    0 -0.00000000000E+00 -0.00000000000E+00 -0.12500000000E+03  0.12500000000E+03  0.00000000000E+00 0. -1.
         24    1    1    2    0    0  0.43914564336E+02  0.57327335027E+02  0.62792290478E+02  0.12500000000E+03  0.80419002446E+02 0.  1.
        -24    1    1    2    0    0 -0.43914564336E+02 -0.57327335027E+02 -0.62792290478E+02  0.12500000000E+03  0.80419002446E+02 0. -1.
</event>
<event>
 4    1  0.1653896E-001  0.1250000E+03  0.7546771E-02  0.1126479E+00
        -11   -1    0    0    0    0  0.00000000000E+00  0.00000000000E+00  0.12500000000E+03  0.12500000000E+03  0.00000000000E+00 0.  1.
         11   -1    0    0    0    0 -0.00000000000E+00 -0.00000000000E+00 -0.12500000000E+03  0.12500000000E+03  0.00000000000E+00 0. -1.
         24    1    1    2    0    0  0.39476511046E+02 -0.19994199208E+00  0.87174245878E+02  0.12500000000E+03  0.80419002446E+02 0.  1.
        -24    1    1    2    0    0 -0.39476511046E+02  0.19994199208E+00 -0.87174245878E+02  0.12500000000E+03  0.80419002446E+02 0. -1.
</event>
<event>
 4    1  0.1653896E-001  0.1250000E+03  0.7546771E-02  0.1126479E+00
        -11   -1    0    0    0    0  0.00000000000E+00  0.00000000000E+00  0.12500000000E+03  0.12500000000E+03  0.00000000000E+00 0.  1.
         11   -1    0    0    0    0 -0.00000000000E+00 -0.00000000000E+00 -0.12500000000E+03  0.12500000000E+03  0.00000000000E+00 0. -1.
         24    1    1    2    0    0 -0.57183662849E+01 -0.45608287335E+02  0.83934310380E+02  0.12500000000E+03  0.80419002446E+02 0.  1.
        -24    1    1    2    0    0  0.57183662849E+01  0.45608287335E+02 -0.83934310380E+02  0.12500000000E+03  0.80419002446E+02 0. -1.
</event>
<event>
 4    1  0.1653896E-001  0.1250000E+03  0.7546771E-02  0.1126479E+00
        -11   -1    0    0    0    0  0.00000000000E+00  0.00000000000E+00  0.12500000000E+03  0.12500000000E+03  0.00000000000E+00 0.  1.
         11   -1    0    0    0    0 -0.00000000000E+00 -0.00000000000E+00 -0.12500000000E+03  0.12500000000E+03  0.00000000000E+00 0. -1.
         24    1    1    2    0    0  0.29865213775E+02 -0.56119908879E+02  0.71529077159E+02  0.12500000000E+03  0.80419002446E+02 0.  1.
        -24    1    1    2    0    0 -0.29865213775E+02  0.56119908879E+02 -0.71529077159E+02  0.12500000000E+03  0.80419002446E+02 0. -1.
</event>
<event>
 4    1  0.1653896E-001  0.1250000E+03  0.7546771E-02  0.1126479E+00
        -11   -1    0    0    0    0  0.00000000000E+00  0.00000000000E+00  0.12500000000E+03  0.12500000000E+03  0.00000000000E+00 0. -1.
         11   -1    0    0    0    0 -0.00000000000E+00 -0.00000000000E+00 -0.12500000000E+03  0.12500000000E+03  0.00000000000E+00 0.  1.
         24    1    1    2    0    0  0.22987447534E+02  0.27746810837E+01 -0.92852907582E+02  0.12500000000E+03  0.80419002446E+02 0.  1.
        -24    1    1    2    0    0 -0.22987447534E+02 -0.27746810837E+01  0.92852907582E+02  0.12500000000E+03  0.80419002446E+02 0.  0.
</event>
<event>
 4    1  0.1653896E-001  0.1250000E+03  0.7546771E-02  0.1126479E+00
        -11   -1    0    0    0    0  0.00000000000E+00  0.00000000000E+00  0.12500000000E+03  0.12500000000E+03  0.00000000000E+00 0.  1.
         11   -1    0    0    0    0 -0.00000000000E+00 -0.00000000000E+00 -0.12500000000E+03  0.12500000000E+03  0.00000000000E+00 0. -1.
         24    1    1    2    0    0  0.38485046316E+02 -0.20582505908E+01  0.87592516006E+02  0.12500000000E+03  0.80419002446E+02 0.  1.
        -24    1    1    2    0    0 -0.38485046316E+02  0.20582505908E+01 -0.87592516006E+02  0.12500000000E+03  0.80419002446E+02 0. -1.
</event>
<event>
 4    1  0.1653896E-001  0.1250000E+03  0.7546771E-02  0.1126479E+00
        -11   -1    0    0    0    0  0.00000000000E+00  0.00000000000E+00  0.12500000000E+03  0.12500000000E+03  0.00000000000E+00 0.  1.
         11   -1    0    0    0    0 -0.00000000000E+00 -0.00000000000E+00 -0.12500000000E+03  0.12500000000E+03  0.00000000000E+00 0. -1.
         24    1    1    2    0    0  0.31856799905E+02 -0.25821597051E+02  0.86464868422E+02  0.12500000000E+03  0.80419002446E+02 0.  1.
        -24    1    1    2    0    0 -0.31856799905E+02  0.25821597051E+02 -0.86464868422E+02  0.12500000000E+03  0.80419002446E+02 0. -1.
</event>
<event>
 4    1  0.1653896E-001  0.1250000E+03  0.7546771E-02  0.1126479E+00
        -11   -1    0    0    0    0  0.00000000000E+00  0.00000000000E+00  0.12500000000E+03  0.12500000000E+03  0.00000000000E+00 0.  1.
         11   -1    0    0    0    0 -0.00000000000E+00 -0.00000000000E+00 -0.12500000000E+03  0.12500000000E+03  0.00000000000E+00 0. -1.
         24    1    1    2    0    0  0.11598319262E+02  0.87049383857E+02  0.38021938483E+02  0.12500000000E+03  0.80419002446E+02 0.  1.
        -24    1    1    2    0    0 -0.11598319262E+02 -0.87049383857E+02 -0.38021938483E+02  0.12500000000E+03  0.80419002446E+02 0. -1.
</event>
<event>
 4    1  0.1653896E-001  0.1250000E+03  0.7546771E-02  0.1126479E+00
        -11   -1    0    0    0    0  0.00000000000E+00  0.00000000000E+00  0.12500000000E+03  0.12500000000E+03  0.00000000000E+00 0.  1.
         11   -1    0    0    0    0 -0.00000000000E+00 -0.00000000000E+00 -0.12500000000E+03  0.12500000000E+03  0.00000000000E+00 0. -1.
         24    1    1    2    0    0 -0.22268685542E+02 -0.12935939673E+02  0.92165889323E+02  0.12500000000E+03  0.80419002446E+02 0.  1.
        -24    1    1    2    0    0  0.22268685542E+02  0.12935939673E+02 -0.92165889323E+02  0.12500000000E+03  0.80419002446E+02 0. -1.
</event>
<event>
 4    1  0.1653896E-001  0.1250000E+03  0.7546771E-02  0.1126479E+00
        -11   -1    0    0    0    0  0.00000000000E+00  0.00000000000E+00  0.12500000000E+03  0.12500000000E+03  0.00000000000E+00 0.  1.
         11   -1    0    0    0    0 -0.00000000000E+00 -0.00000000000E+00 -0.12500000000E+03  0.12500000000E+03  0.00000000000E+00 0. -1.
         24    1    1    2    0    0 -0.75240827098E+02 -0.32370361343E+02  0.49484964280E+02  0.12500000000E+03  0.80419002446E+02 0.  1.
        -24    1    1    2    0    0  0.75240827098E+02  0.32370361343E+02 -0.49484964280E+02  0.12500000000E+03  0.80419002446E+02 0. -1.
</event>
<event>
 4    1  0.1653896E-001  0.1250000E+03  0.7546771E-02  0.1126479E+00
        -11   -1    0    0    0    0  0.00000000000E+00  0.00000000000E+00  0.12500000000E+03  0.12500000000E+03  0.00000000000E+00 0.  1.
         11   -1    0    0    0    0 -0.00000000000E+00 -0.00000000000E+00 -0.12500000000E+03  0.12500000000E+03  0.00000000000E+00 0. -1.
         24    1    1    2    0    0 -0.42836572837E+02 -0.47224898073E+02  0.71362602777E+02  0.12500000000E+03  0.80419002446E+02 0.  1.
        -24    1    1    2    0    0  0.42836572837E+02  0.47224898073E+02 -0.71362602777E+02  0.12500000000E+03  0.80419002446E+02 0. -1.
</event>
<event>
 4    1  0.1653896E-001  0.1250000E+03  0.7546771E-02  0.1126479E+00
        -11   -1    0    0    0    0  0.00000000000E+00  0.00000000000E+00  0.12500000000E+03  0.12500000000E+03  0.00000000000E+00 0.  1.
         11   -1    0    0    0    0 -0.00000000000E+00 -0.00000000000E+00 -0.12500000000E+03  0.12500000000E+03  0.00000000000E+00 0. -1.
         24    1    1    2    0    0  0.19182330696E+02  0.13486552644E+02  0.92778958458E+02  0.12500000000E+03  0.80419002446E+02 0.  1.
        -24    1    1    2    0    0 -0.19182330696E+02 -0.13486552644E+02 -0.92778958458E+02  0.12500000000E+03  0.80419002446E+02 0. -1.
</event>
<event>
 4    1  0.1653896E-001  0.1250000E+03  0.7546771E-02  0.1126479E+00
        -11   -1    0    0    0    0  0.00000000000E+00  0.00000000000E+00  0.12500000000E+03  0.12500000000E+03  0.00000000000E+00 0.  1.
         11   -1    0    0    0    0 -0.00000000000E+00 -0.00000000000E+00 -0.12500000000E+03  0.12500000000E+03  0.00000000000E+00 0. -1.
         24    1    1    2    0    0  0.52601711215E+01  0.32487976482E+02  0.89859034212E+02  0.12500000000E+03  0.80419002446E+02 0.  1.
        -24    1    1    2    0    0 -0.52601711215E+01 -0.32487976482E+02 -0.89859034212E+02  0.12500000000E+03  0.80419002446E+02 0. -1.
</event>
<event>
 4    1  0.1653896E-001  0.1250000E+03  0.7546771E-02  0.1126479E+00
        -11   -1    0    0    0    0  0.00000000000E+00  0.00000000000E+00  0.12500000000E+03  0.12500000000E+03  0.00000000000E+00 0.  1.
         11   -1    0    0    0    0 -0.00000000000E+00 -0.00000000000E+00 -0.12500000000E+03  0.12500000000E+03  0.00000000000E+00 0. -1.
         24    1    1    2    0    0 -0.61177644021E+02  0.72413475210E+02  0.13090780179E+02  0.12500000000E+03  0.80419002446E+02 0.  1.
        -24    1    1    2    0    0  0.61177644021E+02 -0.72413475210E+02 -0.13090780179E+02  0.12500000000E+03  0.80419002446E+02 0. -1.
</event>
<event>
 4    1  0.1653896E-001  0.1250000E+03  0.7546771E-02  0.1126479E+00
        -11   -1    0    0    0    0  0.00000000000E+00  0.00000000000E+00  0.12500000000E+03  0.12500000000E+03  0.00000000000E+00 0.  1.
         11   -1    0    0    0    0 -0.00000000000E+00 -0.00000000000E+00 -0.12500000000E+03  0.12500000000E+03  0.00000000000E+00 0. -1.
         24    1    1    2    0    0  0.16253523279E+02  0.72005820693E+01  0.94030626099E+02  0.12500000000E+03  0.80419002446E+02 0. -1.
        -24    1    1    2    0    0 -0.16253523279E+02 -0.72005820693E+01 -0.94030626099E+02  0.12500000000E+03  0.80419002446E+02 0. -1.
</event>
<event>
 4    1  0.1653896E-001  0.1250000E+03  0.7546771E-02  0.1126479E+00
        -11   -1    0    0    0    0  0.00000000000E+00  0.00000000000E+00  0.12500000000E+03  0.12500000000E+03  0.00000000000E+00 0.  1.
         11   -1    0    0    0    0 -0.00000000000E+00 -0.00000000000E+00 -0.12500000000E+03  0.12500000000E+03  0.00000000000E+00 0. -1.
         24    1    1    2    0    0  0.47129583180E+02  0.82064917275E+02 -0.14210411240E+02  0.12500000000E+03  0.80419002446E+02 0. -1.
        -24    1    1    2    0    0 -0.47129583180E+02 -0.82064917275E+02  0.14210411240E+02  0.12500000000E+03  0.80419002446E+02 0.  1.
</event>
<event>
 4    1  0.1653896E-001  0.1250000E+03  0.7546771E-02  0.1126479E+00
        -11   -1    0    0    0    0  0.00000000000E+00  0.00000000000E+00  0.12500000000E+03  0.12500000000E+03  0.00000000000E+00 0.  1.
         11   -1    0    0    0    0 -0.00000000000E+00 -0.00000000000E+00 -0.12500000000E+03  0.12500000000E+03  0.00000000000E+00 0. -1.
         24    1    1    2    0    0  0.32310037134E+02 -0.68119978108E+02  0.58936526268E+02  0.12500000000E+03  0.80419002446E+02 0.  1.
        -24    1    1    2    0    0 -0.32310037134E+02  0.68119978108E+02 -0.58936526268E+02  0.12500000000E+03  0.80419002446E+02 0. -1.
</event>
<event>
 4    1  0.1653896E-001  0.1250000E+03  0.7546771E-02  0.1126479E+00
        -11   -1    0    0    0    0  0.00000000000E+00  0.00000000000E+00  0.12500000000E+03  0.12500000000E+03  0.00000000000E+00 0.  1.
         11   -1    0    0    0    0 -0.00000000000E+00 -0.00000000000E+00 -0.12500000000E+03  0.12500000000E+03  0.00000000000E+00 0. -1.
         24    1    1    2    0    0 -0.21075512597E+02  0.39399731293E+02  0.84624275409E+02  0.12500000000E+03  0.80419002446E+02 0.  1.
        -24    1    1    2    0    0  0.21075512597E+02 -0.39399731293E+02 -0.84624275409E+02  0.12500000000E+03  0.80419002446E+02 0. -1.
</event>
<event>
 4    1  0.1653896E-001  0.1250000E+03  0.7546771E-02  0.1126479E+00
        -11   -1    0    0    0    0  0.00000000000E+00  0.00000000000E+00  0.12500000000E+03  0.12500000000E+03  0.00000000000E+00 0.  1.
         11   -1    0    0    0    0 -0.00000000000E+00 -0.00000000000E+00 -0.12500000000E+03  0.12500000000E+03  0.00000000000E+00 0. -1.
         24    1    1    2    0    0  0.63600789624E+02  0.52752689513E+02  0.48268803114E+02  0.12500000000E+03  0.80419002446E+02 0.  1.
        -24    1    1    2    0    0 -0.63600789624E+02 -0.52752689513E+02 -0.48268803114E+02  0.12500000000E+03  0.80419002446E+02 0. -1.
</event>
<event>
 4    1  0.1653896E-001  0.1250000E+03  0.7546771E-02  0.1126479E+00
        -11   -1    0    0    0    0  0.00000000000E+00  0.00000000000E+00  0.12500000000E+03  0.12500000000E+03  0.00000000000E+00 0.  1.
         11   -1    0    0    0    0 -0.00000000000E+00 -0.00000000000E+00 -0.12500000000E+03  0.12500000000E+03  0.00000000000E+00 0. -1.
         24    1    1    2    0    0  0.35531520433E+02  0.70805491389E+02  0.53683121095E+02  0.12500000000E+03  0.80419002446E+02 0.  1.
        -24    1    1    2    0    0 -0.35531520433E+02 -0.70805491389E+02 -0.53683121095E+02  0.12500000000E+03  0.80419002446E+02 0.  0.
</event>
<event>
 4    1  0.1653896E-001  0.1250000E+03  0.7546771E-02  0.1126479E+00
        -11   -1    0    0    0    0  0.00000000000E+00  0.00000000000E+00  0.12500000000E+03  0.12500000000E+03  0.00000000000E+00 0.  1.
         11   -1    0    0    0    0 -0.00000000000E+00 -0.00000000000E+00 -0.12500000000E+03  0.12500000000E+03  0.00000000000E+00 0. -1.
         24    1    1    2    0    0 -0.74236087095E+02 -0.47120128259E+02  0.37768782497E+02  0.12500000000E+03  0.80419002446E+02 0.  1.
        -24    1    1    2    0    0  0.74236087095E+02  0.47120128259E+02 -0.37768782497E+02  0.12500000000E+03  0.80419002446E+02 0. -1.
</event>
<event>
 4    1  0.1653896E-001  0.1250000E+03  0.7546771E-02  0.1126479E+00
        -11   -1    0    0    0    0  0.00000000000E+00  0.00000000000E+00  0.12500000000E+03  0.12500000000E+03  0.00000000000E+00 0. -1.
         11   -1    0    0    0    0 -0.00000000000E+00 -0.00000000000E+00 -0.12500000000E+03  0.12500000000E+03  0.00000000000E+00 0.  1.
         24    1    1    2    0    0 -0.81081240325E+02  0.43404660298E+02  0.26450935285E+02  0.12500000000E+03  0.80419002446E+02 0.  0.
        -24    1    1    2    0    0  0.81081240325E+02 -0.43404660298E+02 -0.26450935285E+02  0.12500000000E+03  0.80419002446E+02 0.  0.
</event>
<event>
 4    1  0.1653896E-001  0.1250000E+03  0.7546771E-02  0.1126479E+00
        -11   -1    0    0    0    0  0.00000000000E+00  0.00000000000E+00  0.12500000000E+03  0.12500000000E+03  0.00000000000E+00 0.  1.
         11   -1    0    0    0    0 -0.00000000000E+00 -0.00000000000E+00 -0.12500000000E+03  0.12500000000E+03  0.00000000000E+00 0. -1.
         24    1    1    2    0    0  0.91341104657E+02  0.10899563554E+02  0.26377758812E+02  0.12500000000E+03  0.80419002446E+02 0. -1.
        -24    1    1    2    0    0 -0.91341104657E+02 -0.10899563554E+02 -0.26377758812E+02  0.12500000000E+03  0.80419002446E+02 0.  1.
</event>
<event>
 4    1  0.1653896E-001  0.1250000E+03  0.7546771E-02  0.1126479E+00
        -11   -1    0    0    0    0  0.00000000000E+00  0.00000000000E+00  0.12500000000E+03  0.12500000000E+03  0.00000000000E+00 0.  1.
         11   -1    0    0    0    0 -0.00000000000E+00 -0.00000000000E+00 -0.12500000000E+03  0.12500000000E+03  0.00000000000E+00 0. -1.
         24    1    1    2    0    0 -0.41153850539E+01  0.26952206559E+02  0.91730181582E+02  0.12500000000E+03  0.80419002446E+02 0.  1.
        -24    1    1    2    0    0  0.41153850539E+01 -0.26952206559E+02 -0.91730181582E+02  0.12500000000E+03  0.80419002446E+02 0. -1.
</event>
<event>
 4    1  0.1653896E-001  0.1250000E+03  0.7546771E-02  0.1126479E+00
        -11   -1    0    0    0    0  0.00000000000E+00  0.00000000000E+00  0.12500000000E+03  0.12500000000E+03  0.00000000000E+00 0.  1.
         11   -1    0    0    0    0 -0.00000000000E+00 -0.00000000000E+00 -0.12500000000E+03  0.12500000000E+03  0.00000000000E+00 0. -1.
         24    1    1    2    0    0 -0.28703080360E+02  0.90930359583E+02 -0.80985757820E+01  0.12500000000E+03  0.80419002446E+02 0.  1.
        -24    1    1    2    0    0  0.28703080360E+02 -0.90930359583E+02  0.80985757820E+01  0.12500000000E+03  0.80419002446E+02 0.  0.
</event>
<event>
 4    1  0.1653896E-001  0.1250000E+03  0.7546771E-02  0.1126479E+00
        -11   -1    0    0    0    0  0.00000000000E+00  0.00000000000E+00  0.12500000000E+03  0.12500000000E+03  0.00000000000E+00 0.  1.
         11   -1    0    0    0    0 -0.00000000000E+00 -0.00000000000E+00 -0.12500000000E+03  0.12500000000E+03  0.00000000000E+00 0. -1.
         24    1    1    2    0    0  0.13484784635E+02  0.25805395303E+02  0.91159345117E+02  0.12500000000E+03  0.80419002446E+02 0.  1.
        -24    1    1    2    0    0 -0.13484784635E+02 -0.25805395303E+02 -0.91159345117E+02  0.12500000000E+03  0.80419002446E+02 0. -1.
</event>
<event>
 4    1  0.1653896E-001  0.1250000E+03  0.7546771E-02  0.1126479E+00
        -11   -1    0    0    0    0  0.00000000000E+00  0.00000000000E+00  0.12500000000E+03  0.12500000000E+03  0.00000000000E+00 0.  1.
         11   -1    0    0    0    0 -0.00000000000E+00 -0.00000000000E+00 -0.12500000000E+03  0.12500000000E+03  0.00000000000E+00 0. -1.
         24    1    1    2    0    0  0.42932797368E+02 -0.52088316351E+02  0.67833371252E+02  0.12500000000E+03  0.80419002446E+02 0.  1.
        -24    1    1    2    0    0 -0.42932797368E+02  0.52088316351E+02 -0.67833371252E+02  0.12500000000E+03  0.80419002446E+02 0. -1.
</event>
<event>
 4    1  0.1653896E-001  0.1250000E+03  0.7546771E-02  0.1126479E+00
        -11   -1    0    0    0    0  0.00000000000E+00  0.00000000000E+00  0.12500000000E+03  0.12500000000E+03  0.00000000000E+00 0.  1.
         11   -1    0    0    0    0 -0.00000000000E+00 -0.00000000000E+00 -0.12500000000E+03  0.12500000000E+03  0.00000000000E+00 0. -1.
         24    1    1    2    0    0 -0.67814071663E+02 -0.29995478027E+02  0.60492206341E+02  0.12500000000E+03  0.80419002446E+02 0.  1.
        -24    1    1    2    0    0  0.67814071663E+02  0.29995478027E+02 -0.60492206341E+02  0.12500000000E+03  0.80419002446E+02 0. -1.
</event>
<event>
 4    1  0.1653896E-001  0.1250000E+03  0.7546771E-02  0.1126479E+00
        -11   -1    0    0    0    0  0.00000000000E+00  0.00000000000E+00  0.12500000000E+03  0.12500000000E+03  0.00000000000E+00 0.  1.
         11   -1    0    0    0    0 -0.00000000000E+00 -0.00000000000E+00 -0.12500000000E+03  0.12500000000E+03  0.00000000000E+00 0. -1.
         24    1    1    2    0    0  0.57816998032E+02  0.65687185893E+02  0.38732058990E+02  0.12500000000E+03  0.80419002446E+02 0.  1.
        -24    1    1    2    0    0 -0.57816998032E+02 -0.65687185893E+02 -0.38732058990E+02  0.12500000000E+03  0.80419002446E+02 0.  0.
</event>
<event>
 4    1  0.1653896E-001  0.1250000E+03  0.7546771E-02  0.1126479E+00
        -11   -1    0    0    0    0  0.00000000000E+00  0.00000000000E+00  0.12500000000E+03  0.12500000000E+03  0.00000000000E+00 0.  1.
         11   -1    0    0    0    0 -0.00000000000E+00 -0.00000000000E+00 -0.12500000000E+03  0.12500000000E+03  0.00000000000E+00 0. -1.
         24    1    1    2    0    0 -0.68688079323E+02 -0.29896735864E+02  0.59547602716E+02  0.12500000000E+03  0.80419002446E+02 0.  1.
        -24    1    1    2    0    0  0.68688079323E+02  0.29896735864E+02 -0.59547602716E+02  0.12500000000E+03  0.80419002446E+02 0. -1.
</event>
<event>
 4    1  0.1653896E-001  0.1250000E+03  0.7546771E-02  0.1126479E+00
        -11   -1    0    0    0    0  0.00000000000E+00  0.00000000000E+00  0.12500000000E+03  0.12500000000E+03  0.00000000000E+00 0.  1.
         11   -1    0    0    0    0 -0.00000000000E+00 -0.00000000000E+00 -0.12500000000E+03  0.12500000000E+03  0.00000000000E+00 0. -1.
         24    1    1    2    0    0 -0.13969511392E+01 -0.45283338852E+02  0.84292655644E+02  0.12500000000E+03  0.80419002446E+02 0.  1.
        -24    1    1    2    0    0  0.13969511392E+01  0.45283338852E+02 -0.84292655644E+02  0.12500000000E+03  0.80419002446E+02 0. -1.
</event>
<event>
 4    1  0.1653896E-001  0.1250000E+03  0.7546771E-02  0.1126479E+00
        -11   -1    0    0    0    0  0.00000000000E+00  0.00000000000E+00  0.12500000000E+03  0.12500000000E+03  0.00000000000E+00 0.  1.
         11   -1    0    0    0    0 -0.00000000000E+00 -0.00000000000E+00 -0.12500000000E+03  0.12500000000E+03  0.00000000000E+00 0. -1.
         24    1    1    2    0    0 -0.16770123515E+02 -0.33026758688E+02  0.88237068251E+02  0.12500000000E+03  0.80419002446E+02 0.  1.
        -24    1    1    2    0    0  0.16770123515E+02  0.33026758688E+02 -0.88237068251E+02  0.12500000000E+03  0.80419002446E+02 0. -1.
</event>
<event>
 4    1  0.1653896E-001  0.1250000E+03  0.7546771E-02  0.1126479E+00
        -11   -1    0    0    0    0  0.00000000000E+00  0.00000000000E+00  0.12500000000E+03  0.12500000000E+03  0.00000000000E+00 0.  1.
         11   -1    0    0    0    0 -0.00000000000E+00 -0.00000000000E+00 -0.12500000000E+03  0.12500000000E+03  0.00000000000E+00 0. -1.
         24    1    1    2    0    0 -0.50974450437E+02  0.16395971234E+02  0.79313060561E+02  0.12500000000E+03  0.80419002446E+02 0.  1.
        -24    1    1    2    0    0  0.50974450437E+02 -0.16395971234E+02 -0.79313060561E+02  0.12500000000E+03  0.80419002446E+02 0. -1.
</event>
<event>
 4    1  0.1653896E-001  0.1250000E+03  0.7546771E-02  0.1126479E+00
        -11   -1    0    0    0    0  0.00000000000E+00  0.00000000000E+00  0.12500000000E+03  0.12500000000E+03  0.00000000000E+00 0.  1.
         11   -1    0    0    0    0 -0.00000000000E+00 -0.00000000000E+00 -0.12500000000E+03  0.12500000000E+03  0.00000000000E+00 0. -1.
         24    1    1    2    0    0 -0.33503314606E+02 -0.49142298775E+02  0.74968969762E+02  0.12500000000E+03  0.80419002446E+02 0.  1.
        -24    1    1    2    0    0  0.33503314606E+02  0.49142298775E+02 -0.74968969762E+02  0.12500000000E+03  0.80419002446E+02 0. -1.
</event>
<event>
 4    1  0.1653896E-001  0.1250000E+03  0.7546771E-02  0.1126479E+00
        -11   -1    0    0    0    0  0.00000000000E+00  0.00000000000E+00  0.12500000000E+03  0.12500000000E+03  0.00000000000E+00 0.  1.
         11   -1    0    0    0    0 -0.00000000000E+00 -0.00000000000E+00 -0.12500000000E+03  0.12500000000E+03  0.00000000000E+00 0. -1.
         24    1    1    2    0    0 -0.52326501546E+02  0.61715906114E+02  0.51096655607E+02  0.12500000000E+03  0.80419002446E+02 0.  1.
        -24    1    1    2    0    0  0.52326501546E+02 -0.61715906114E+02 -0.51096655607E+02  0.12500000000E+03  0.80419002446E+02 0. -1.
</event>
<event>
 4    1  0.1653896E-001  0.1250000E+03  0.7546771E-02  0.1126479E+00
        -11   -1    0    0    0    0  0.00000000000E+00  0.00000000000E+00  0.12500000000E+03  0.12500000000E+03  0.00000000000E+00 0.  1.
         11   -1    0    0    0    0 -0.00000000000E+00 -0.00000000000E+00 -0.12500000000E+03  0.12500000000E+03  0.00000000000E+00 0. -1.
         24    1    1    2    0    0  0.13622863777E+02  0.27196658821E+02  0.90733364189E+02  0.12500000000E+03  0.80419002446E+02 0.  1.
        -24    1    1    2    0    0 -0.13622863777E+02 -0.27196658821E+02 -0.90733364189E+02  0.12500000000E+03  0.80419002446E+02 0. -1.
</event>
<event>
 4    1  0.1653896E-001  0.1250000E+03  0.7546771E-02  0.1126479E+00
        -11   -1    0    0    0    0  0.00000000000E+00  0.00000000000E+00  0.12500000000E+03  0.12500000000E+03  0.00000000000E+00 0.  1.
         11   -1    0    0    0    0 -0.00000000000E+00 -0.00000000000E+00 -0.12500000000E+03  0.12500000000E+03  0.00000000000E+00 0. -1.
         24    1    1    2    0    0 -0.77095273779E+02  0.48248203317E+02  0.29769341330E+02  0.12500000000E+03  0.80419002446E+02 0.  1.
        -24    1    1    2    0    0  0.77095273779E+02 -0.48248203317E+02 -0.29769341330E+02  0.12500000000E+03  0.80419002446E+02 0. -1.
</event>
<event>
 4    1  0.1653896E-001  0.1250000E+03  0.7546771E-02  0.1126479E+00
        -11   -1    0    0    0    0  0.00000000000E+00  0.00000000000E+00  0.12500000000E+03  0.12500000000E+03  0.00000000000E+00 0.  1.
         11   -1    0    0    0    0 -0.00000000000E+00 -0.00000000000E+00 -0.12500000000E+03  0.12500000000E+03  0.00000000000E+00 0. -1.
         24    1    1    2    0    0 -0.24774783668E+02 -0.25323894097E+02  0.88897100783E+02  0.12500000000E+03  0.80419002446E+02 0.  0.
        -24    1    1    2    0    0  0.24774783668E+02  0.25323894097E+02 -0.88897100783E+02  0.12500000000E+03  0.80419002446E+02 0.  1.
</event>
<event>
 4    1  0.1653896E-001  0.1250000E+03  0.7546771E-02  0.1126479E+00
        -11   -1    0    0    0    0  0.00000000000E+00  0.00000000000E+00  0.12500000000E+03  0.12500000000E+03  0.00000000000E+00 0.  1.
         11   -1    0    0    0    0 -0.00000000000E+00 -0.00000000000E+00 -0.12500000000E+03  0.12500000000E+03  0.00000000000E+00 0. -1.
         24    1    1    2    0    0  0.35372925715E+02  0.39121200784E+02  0.79850308836E+02  0.12500000000E+03  0.80419002446E+02 0.  1.
        -24    1    1    2    0    0 -0.35372925715E+02 -0.39121200784E+02 -0.79850308836E+02  0.12500000000E+03  0.80419002446E+02 0. -1.
</event>
<event>
 4    1  0.1653896E-001  0.1250000E+03  0.7546771E-02  0.1126479E+00
        -11   -1    0    0    0    0  0.00000000000E+00  0.00000000000E+00  0.12500000000E+03  0.12500000000E+03  0.00000000000E+00 0.  1.
         11   -1    0    0    0    0 -0.00000000000E+00 -0.00000000000E+00 -0.12500000000E+03  0.12500000000E+03  0.00000000000E+00 0. -1.
         24    1    1    2    0    0 -0.84149817583E+02  0.12062835281E+02  0.43944058203E+02  0.12500000000E+03  0.80419002446E+02 0.  0.
        -24    1    1    2    0    0  0.84149817583E+02 -0.12062835281E+02 -0.43944058203E+02  0.12500000000E+03  0.80419002446E+02 0. -1.
</event>
<event>
 4    1  0.1653896E-001  0.1250000E+03  0.7546771E-02  0.1126479E+00
        -11   -1    0    0    0    0  0.00000000000E+00  0.00000000000E+00  0.12500000000E+03  0.12500000000E+03  0.00000000000E+00 0.  1.
         11   -1    0    0    0    0 -0.00000000000E+00 -0.00000000000E+00 -0.12500000000E+03  0.12500000000E+03  0.00000000000E+00 0. -1.
         24    1    1    2    0    0  0.11212312533E+02  0.70584759215E+02  0.63638509252E+02  0.12500000000E+03  0.80419002446E+02 0.  1.
        -24    1    1    2    0    0 -0.11212312533E+02 -0.70584759215E+02 -0.63638509252E+02  0.12500000000E+03  0.80419002446E+02 0. -1.
</event>
<event>
 4    1  0.1653896E-001  0.1250000E+03  0.7546771E-02  0.1126479E+00
        -11   -1    0    0    0    0  0.00000000000E+00  0.00000000000E+00  0.12500000000E+03  0.12500000000E+03  0.00000000000E+00 0.  1.
         11   -1    0    0    0    0 -0.00000000000E+00 -0.00000000000E+00 -0.12500000000E+03  0.12500000000E+03  0.00000000000E+00 0. -1.
         24    1    1    2    0    0 -0.34585158175E+02  0.29067388751E+02  0.84360759781E+02  0.12500000000E+03  0.80419002446E+02 0.  1.
        -24    1    1    2    0    0  0.34585158175E+02 -0.29067388751E+02 -0.84360759781E+02  0.12500000000E+03  0.80419002446E+02 0. -1.
</event>
<event>
 4    1  0.1653896E-001  0.1250000E+03  0.7546771E-02  0.1126479E+00
        -11   -1    0    0    0    0  0.00000000000E+00  0.00000000000E+00  0.12500000000E+03  0.12500000000E+03  0.00000000000E+00 0.  1.
         11   -1    0    0    0    0 -0.00000000000E+00 -0.00000000000E+00 -0.12500000000E+03  0.12500000000E+03  0.00000000000E+00 0. -1.
         24    1    1    2    0    0 -0.34412690982E+02  0.33161784960E+02  0.82908665188E+02  0.12500000000E+03  0.80419002446E+02 0.  1.
        -24    1    1    2    0    0  0.34412690982E+02 -0.33161784960E+02 -0.82908665188E+02  0.12500000000E+03  0.80419002446E+02 0. -1.
</event>
<event>
 4    1  0.1653896E-001  0.1250000E+03  0.7546771E-02  0.1126479E+00
        -11   -1    0    0    0    0  0.00000000000E+00  0.00000000000E+00  0.12500000000E+03  0.12500000000E+03  0.00000000000E+00 0.  1.
         11   -1    0    0    0    0 -0.00000000000E+00 -0.00000000000E+00 -0.12500000000E+03  0.12500000000E+03  0.00000000000E+00 0. -1.
         24    1    1    2    0    0 -0.28404283246E+02  0.19908951487E+02  0.89188644959E+02  0.12500000000E+03  0.80419002446E+02 0.  1.
        -24    1    1    2    0    0  0.28404283246E+02 -0.19908951487E+02 -0.89188644959E+02  0.12500000000E+03  0.80419002446E+02 0. -1.
</event>
<event>
 4    1  0.1653896E-001  0.1250000E+03  0.7546771E-02  0.1126479E+00
        -11   -1    0    0    0    0  0.00000000000E+00  0.00000000000E+00  0.12500000000E+03  0.12500000000E+03  0.00000000000E+00 0.  1.
         11   -1    0    0    0    0 -0.00000000000E+00 -0.00000000000E+00 -0.12500000000E+03  0.12500000000E+03  0.00000000000E+00 0. -1.
         24    1    1    2    0    0  0.11859755824E+02  0.17885711983E+02  0.93258948870E+02  0.12500000000E+03  0.80419002446E+02 0.  1.
        -24    1    1    2    0    0 -0.11859755824E+02 -0.17885711983E+02 -0.93258948870E+02  0.12500000000E+03  0.80419002446E+02 0. -1.
</event>
<event>
 4    1  0.1653896E-001  0.1250000E+03  0.7546771E-02  0.1126479E+00
        -11   -1    0    0    0    0  0.00000000000E+00  0.00000000000E+00  0.12500000000E+03  0.12500000000E+03  0.00000000000E+00 0.  1.
         11   -1    0    0    0    0 -0.00000000000E+00 -0.00000000000E+00 -0.12500000000E+03  0.12500000000E+03  0.00000000000E+00 0. -1.
         24    1    1    2    0    0  0.38263447767E+01 -0.76703846597E+02  0.57093458895E+02  0.12500000000E+03  0.80419002446E+02 0.  1.
        -24    1    1    2    0    0 -0.38263447767E+01  0.76703846597E+02 -0.57093458895E+02  0.12500000000E+03  0.80419002446E+02 0. -1.
</event>
<event>
 4    1  0.1653896E-001  0.1250000E+03  0.7546771E-02  0.1126479E+00
        -11   -1    0    0    0    0  0.00000000000E+00  0.00000000000E+00  0.12500000000E+03  0.12500000000E+03  0.00000000000E+00 0.  1.
         11   -1    0    0    0    0 -0.00000000000E+00 -0.00000000000E+00 -0.12500000000E+03  0.12500000000E+03  0.00000000000E+00 0. -1.
         24    1    1    2    0    0 -0.47309780152E+02  0.82154292849E+02 -0.13047640176E+02  0.12500000000E+03  0.80419002446E+02 0.  1.
        -24    1    1    2    0    0  0.47309780152E+02 -0.82154292849E+02  0.13047640176E+02  0.12500000000E+03  0.80419002446E+02 0.  0.
</event>
<event>
 4    1  0.1653896E-001  0.1250000E+03  0.7546771E-02  0.1126479E+00
        -11   -1    0    0    0    0  0.00000000000E+00  0.00000000000E+00  0.12500000000E+03  0.12500000000E+03  0.00000000000E+00 0.  1.
         11   -1    0    0    0    0 -0.00000000000E+00 -0.00000000000E+00 -0.12500000000E+03  0.12500000000E+03  0.00000000000E+00 0. -1.
         24    1    1    2    0    0 -0.35920460537E+02  0.24539249360E+02  0.85236903987E+02  0.12500000000E+03  0.80419002446E+02 0.  1.
        -24    1    1    2    0    0  0.35920460537E+02 -0.24539249360E+02 -0.85236903987E+02  0.12500000000E+03  0.80419002446E+02 0. -1.
</event>
<event>
 4    1  0.1653896E-001  0.1250000E+03  0.7546771E-02  0.1126479E+00
        -11   -1    0    0    0    0  0.00000000000E+00  0.00000000000E+00  0.12500000000E+03  0.12500000000E+03  0.00000000000E+00 0.  1.
         11   -1    0    0    0    0 -0.00000000000E+00 -0.00000000000E+00 -0.12500000000E+03  0.12500000000E+03  0.00000000000E+00 0. -1.
         24    1    1    2    0    0 -0.14290325109E+02  0.34171120774E+02  0.88237776258E+02  0.12500000000E+03  0.80419002446E+02 0.  1.
        -24    1    1    2    0    0  0.14290325109E+02 -0.34171120774E+02 -0.88237776258E+02  0.12500000000E+03  0.80419002446E+02 0. -1.
</event>
<event>
 4    1  0.1653896E-001  0.1250000E+03  0.7546771E-02  0.1126479E+00
        -11   -1    0    0    0    0  0.00000000000E+00  0.00000000000E+00  0.12500000000E+03  0.12500000000E+03  0.00000000000E+00 0.  1.
         11   -1    0    0    0    0 -0.00000000000E+00 -0.00000000000E+00 -0.12500000000E+03  0.12500000000E+03  0.00000000000E+00 0. -1.
         24    1    1    2    0    0 -0.22798088471E+02  0.77777487645E+01  0.92614997878E+02  0.12500000000E+03  0.80419002446E+02 0.  1.
        -24    1    1    2    0    0  0.22798088471E+02 -0.77777487645E+01 -0.92614997878E+02  0.12500000000E+03  0.80419002446E+02 0.  0.
</event>
<event>
 4    1  0.1653896E-001  0.1250000E+03  0.7546771E-02  0.1126479E+00
        -11   -1    0    0    0    0  0.00000000000E+00  0.00000000000E+00  0.12500000000E+03  0.12500000000E+03  0.00000000000E+00 0.  1.
         11   -1    0    0    0    0 -0.00000000000E+00 -0.00000000000E+00 -0.12500000000E+03  0.12500000000E+03  0.00000000000E+00 0. -1.
         24    1    1    2    0    0  0.65382505267E+02  0.69262619819E+02  0.92521103743E+01  0.12500000000E+03  0.80419002446E+02 0.  1.
        -24    1    1    2    0    0 -0.65382505267E+02 -0.69262619819E+02 -0.92521103743E+01  0.12500000000E+03  0.80419002446E+02 0. -1.
</event>
<event>
 4    1  0.1653896E-001  0.1250000E+03  0.7546771E-02  0.1126479E+00
        -11   -1    0    0    0    0  0.00000000000E+00  0.00000000000E+00  0.12500000000E+03  0.12500000000E+03  0.00000000000E+00 0.  1.
         11   -1    0    0    0    0 -0.00000000000E+00 -0.00000000000E+00 -0.12500000000E+03  0.12500000000E+03  0.00000000000E+00 0. -1.
         24    1    1    2    0    0  0.40923724714E+02  0.64667194976E+02  0.57455954392E+02  0.12500000000E+03  0.80419002446E+02 0.  1.
        -24    1    1    2    0    0 -0.40923724714E+02 -0.64667194976E+02 -0.57455954392E+02  0.12500000000E+03  0.80419002446E+02 0. -1.
</event>
<event>
 4    1  0.1653896E-001  0.1250000E+03  0.7546771E-02  0.1126479E+00
        -11   -1    0    0    0    0  0.00000000000E+00  0.00000000000E+00  0.12500000000E+03  0.12500000000E+03  0.00000000000E+00 0.  1.
         11   -1    0    0    0    0 -0.00000000000E+00 -0.00000000000E+00 -0.12500000000E+03  0.12500000000E+03  0.00000000000E+00 0. -1.
         24    1    1    2    0    0 -0.97046181767E+01 -0.29196104286E+02  0.90615627384E+02  0.12500000000E+03  0.80419002446E+02 0.  1.
        -24    1    1    2    0    0  0.97046181767E+01  0.29196104286E+02 -0.90615627384E+02  0.12500000000E+03  0.80419002446E+02 0. -1.
</event>
<event>
 4    1  0.1653896E-001  0.1250000E+03  0.7546771E-02  0.1126479E+00
        -11   -1    0    0    0    0  0.00000000000E+00  0.00000000000E+00  0.12500000000E+03  0.12500000000E+03  0.00000000000E+00 0.  1.
         11   -1    0    0    0    0 -0.00000000000E+00 -0.00000000000E+00 -0.12500000000E+03  0.12500000000E+03  0.00000000000E+00 0. -1.
         24    1    1    2    0    0  0.52075995630E+02 -0.29723402454E+02  0.74581459300E+02  0.12500000000E+03  0.80419002446E+02 0.  1.
        -24    1    1    2    0    0 -0.52075995630E+02  0.29723402454E+02 -0.74581459300E+02  0.12500000000E+03  0.80419002446E+02 0. -1.
</event>
<event>
 4    1  0.1653896E-001  0.1250000E+03  0.7546771E-02  0.1126479E+00
        -11   -1    0    0    0    0  0.00000000000E+00  0.00000000000E+00  0.12500000000E+03  0.12500000000E+03  0.00000000000E+00 0.  1.
         11   -1    0    0    0    0 -0.00000000000E+00 -0.00000000000E+00 -0.12500000000E+03  0.12500000000E+03  0.00000000000E+00 0. -1.
         24    1    1    2    0    0  0.69137173466E+02 -0.63412984946E+02 -0.18884613608E+02  0.12500000000E+03  0.80419002446E+02 0. -1.
        -24    1    1    2    0    0 -0.69137173466E+02  0.63412984946E+02  0.18884613608E+02  0.12500000000E+03  0.80419002446E+02 0.  1.
</event>
<event>
 4    1  0.1653896E-001  0.1250000E+03  0.7546771E-02  0.1126479E+00
        -11   -1    0    0    0    0  0.00000000000E+00  0.00000000000E+00  0.12500000000E+03  0.12500000000E+03  0.00000000000E+00 0.  1.
         11   -1    0    0    0    0 -0.00000000000E+00 -0.00000000000E+00 -0.12500000000E+03  0.12500000000E+03  0.00000000000E+00 0. -1.
         24    1    1    2    0    0 -0.32985071382E+02 -0.21614509888E+02  0.87192786822E+02  0.12500000000E+03  0.80419002446E+02 0.  1.
        -24    1    1    2    0    0  0.32985071382E+02  0.21614509888E+02 -0.87192786822E+02  0.12500000000E+03  0.80419002446E+02 0. -1.
</event>
<event>
 4    1  0.1653896E-001  0.1250000E+03  0.7546771E-02  0.1126479E+00
        -11   -1    0    0    0    0  0.00000000000E+00  0.00000000000E+00  0.12500000000E+03  0.12500000000E+03  0.00000000000E+00 0.  1.
         11   -1    0    0    0    0 -0.00000000000E+00 -0.00000000000E+00 -0.12500000000E+03  0.12500000000E+03  0.00000000000E+00 0. -1.
         24    1    1    2    0    0  0.16163296847E+02 -0.29819635825E+01  0.94274279493E+02  0.12500000000E+03  0.80419002446E+02 0.  0.
        -24    1    1    2    0    0 -0.16163296847E+02  0.29819635825E+01 -0.94274279493E+02  0.12500000000E+03  0.80419002446E+02 0. -1.
</event>
<event>
 4    1  0.1653896E-001  0.1250000E+03  0.7546771E-02  0.1126479E+00
        -11   -1    0    0    0    0  0.00000000000E+00  0.00000000000E+00  0.12500000000E+03  0.12500000000E+03  0.00000000000E+00 0.  1.
         11   -1    0    0    0    0 -0.00000000000E+00 -0.00000000000E+00 -0.12500000000E+03  0.12500000000E+03  0.00000000000E+00 0. -1.
         24    1    1    2    0    0 -0.38157741525E+02  0.26223537204E+02  0.83750205396E+02  0.12500000000E+03  0.80419002446E+02 0.  1.
        -24    1    1    2    0    0  0.38157741525E+02 -0.26223537204E+02 -0.83750205396E+02  0.12500000000E+03  0.80419002446E+02 0. -1.
</event>
<event>
 4    1  0.1653896E-001  0.1250000E+03  0.7546771E-02  0.1126479E+00
        -11   -1    0    0    0    0  0.00000000000E+00  0.00000000000E+00  0.12500000000E+03  0.12500000000E+03  0.00000000000E+00 0.  1.
         11   -1    0    0    0    0 -0.00000000000E+00 -0.00000000000E+00 -0.12500000000E+03  0.12500000000E+03  0.00000000000E+00 0. -1.
         24    1    1    2    0    0  0.35377613984E+02  0.21693272899E+02  0.86229985419E+02  0.12500000000E+03  0.80419002446E+02 0.  1.
        -24    1    1    2    0    0 -0.35377613984E+02 -0.21693272899E+02 -0.86229985419E+02  0.12500000000E+03  0.80419002446E+02 0. -1.
</event>
<event>
 4    1  0.1653896E-001  0.1250000E+03  0.7546771E-02  0.1126479E+00
        -11   -1    0    0    0    0  0.00000000000E+00  0.00000000000E+00  0.12500000000E+03  0.12500000000E+03  0.00000000000E+00 0.  1.
         11   -1    0    0    0    0 -0.00000000000E+00 -0.00000000000E+00 -0.12500000000E+03  0.12500000000E+03  0.00000000000E+00 0. -1.
         24    1    1    2    0    0  0.19965038527E+01  0.25369599353E+02  0.92250644695E+02  0.12500000000E+03  0.80419002446E+02 0.  1.
        -24    1    1    2    0    0 -0.19965038527E+01 -0.25369599353E+02 -0.92250644695E+02  0.12500000000E+03  0.80419002446E+02 0. -1.
</event>
<event>
 4    1  0.1653896E-001  0.1250000E+03  0.7546771E-02  0.1126479E+00
        -11   -1    0    0    0    0  0.00000000000E+00  0.00000000000E+00  0.12500000000E+03  0.12500000000E+03  0.00000000000E+00 0.  1.
         11   -1    0    0    0    0 -0.00000000000E+00 -0.00000000000E+00 -0.12500000000E+03  0.12500000000E+03  0.00000000000E+00 0. -1.
         24    1    1    2    0    0 -0.41053915660E+02  0.21017710273E+02  0.83848768086E+02  0.12500000000E+03  0.80419002446E+02 0.  1.
        -24    1    1    2    0    0  0.41053915660E+02 -0.21017710273E+02 -0.83848768086E+02  0.12500000000E+03  0.80419002446E+02 0. -1.
</event>
<event>
 4    1  0.1653896E-001  0.1250000E+03  0.7546771E-02  0.1126479E+00
        -11   -1    0    0    0    0  0.00000000000E+00  0.00000000000E+00  0.12500000000E+03  0.12500000000E+03  0.00000000000E+00 0.  1.
         11   -1    0    0    0    0 -0.00000000000E+00 -0.00000000000E+00 -0.12500000000E+03  0.12500000000E+03  0.00000000000E+00 0. -1.
         24    1    1    2    0    0 -0.27860841205E+01  0.42430138105E+02  0.85730421446E+02  0.12500000000E+03  0.80419002446E+02 0.  1.
        -24    1    1    2    0    0  0.27860841205E+01 -0.42430138105E+02 -0.85730421446E+02  0.12500000000E+03  0.80419002446E+02 0. -1.
</event>
<event>
 4    1  0.1653896E-001  0.1250000E+03  0.7546771E-02  0.1126479E+00
        -11   -1    0    0    0    0  0.00000000000E+00  0.00000000000E+00  0.12500000000E+03  0.12500000000E+03  0.00000000000E+00 0.  1.
         11   -1    0    0    0    0 -0.00000000000E+00 -0.00000000000E+00 -0.12500000000E+03  0.12500000000E+03  0.00000000000E+00 0. -1.
         24    1    1    2    0    0 -0.26192312065E+02 -0.23866522319E+02  0.88893959000E+02  0.12500000000E+03  0.80419002446E+02 0.  1.
        -24    1    1    2    0    0  0.26192312065E+02  0.23866522319E+02 -0.88893959000E+02  0.12500000000E+03  0.80419002446E+02 0.  0.
</event>
<event>
 4    1  0.1653896E-001  0.1250000E+03  0.7546771E-02  0.1126479E+00
        -11   -1    0    0    0    0  0.00000000000E+00  0.00000000000E+00  0.12500000000E+03  0.12500000000E+03  0.00000000000E+00 0.  1.
         11   -1    0    0    0    0 -0.00000000000E+00 -0.00000000000E+00 -0.12500000000E+03  0.12500000000E+03  0.00000000000E+00 0. -1.
         24    1    1    2    0    0 -0.36901115118E+02 -0.84041354668E+02  0.27076603448E+02  0.12500000000E+03  0.80419002446E+02 0.  1.
        -24    1    1    2    0    0  0.36901115118E+02  0.84041354668E+02 -0.27076603448E+02  0.12500000000E+03  0.80419002446E+02 0. -1.
</event>
<event>
 4    1  0.1653896E-001  0.1250000E+03  0.7546771E-02  0.1126479E+00
        -11   -1    0    0    0    0  0.00000000000E+00  0.00000000000E+00  0.12500000000E+03  0.12500000000E+03  0.00000000000E+00 0.  1.
         11   -1    0    0    0    0 -0.00000000000E+00 -0.00000000000E+00 -0.12500000000E+03  0.12500000000E+03  0.00000000000E+00 0. -1.
         24    1    1    2    0    0 -0.36302932221E+02 -0.85311615344E+01  0.88131154767E+02  0.12500000000E+03  0.80419002446E+02 0. -1.
        -24    1    1    2    0    0  0.36302932221E+02  0.85311615344E+01 -0.88131154767E+02  0.12500000000E+03  0.80419002446E+02 0. -1.
</event>
<event>
 4    1  0.1653896E-001  0.1250000E+03  0.7546771E-02  0.1126479E+00
        -11   -1    0    0    0    0  0.00000000000E+00  0.00000000000E+00  0.12500000000E+03  0.12500000000E+03  0.00000000000E+00 0.  1.
         11   -1    0    0    0    0 -0.00000000000E+00 -0.00000000000E+00 -0.12500000000E+03  0.12500000000E+03  0.00000000000E+00 0. -1.
         24    1    1    2    0    0  0.12546967551E+02 -0.28207935673E+02  0.90579633561E+02  0.12500000000E+03  0.80419002446E+02 0.  1.
        -24    1    1    2    0    0 -0.12546967551E+02  0.28207935673E+02 -0.90579633561E+02  0.12500000000E+03  0.80419002446E+02 0. -1.
</event>
<event>
 4    1  0.1653896E-001  0.1250000E+03  0.7546771E-02  0.1126479E+00
        -11   -1    0    0    0    0  0.00000000000E+00  0.00000000000E+00  0.12500000000E+03  0.12500000000E+03  0.00000000000E+00 0.  1.
         11   -1    0    0    0    0 -0.00000000000E+00 -0.00000000000E+00 -0.12500000000E+03  0.12500000000E+03  0.00000000000E+00 0. -1.
         24    1    1    2    0    0  0.61035898447E+02 -0.16372196325E+02  0.71863442263E+02  0.12500000000E+03  0.80419002446E+02 0.  1.
        -24    1    1    2    0    0 -0.61035898447E+02  0.16372196325E+02 -0.71863442263E+02  0.12500000000E+03  0.80419002446E+02 0. -1.
</event>
<event>
 4    1  0.1653896E-001  0.1250000E+03  0.7546771E-02  0.1126479E+00
        -11   -1    0    0    0    0  0.00000000000E+00  0.00000000000E+00  0.12500000000E+03  0.12500000000E+03  0.00000000000E+00 0.  1.
         11   -1    0    0    0    0 -0.00000000000E+00 -0.00000000000E+00 -0.12500000000E+03  0.12500000000E+03  0.00000000000E+00 0. -1.
         24    1    1    2    0    0 -0.20171544893E+02 -0.60203098566E+02  0.71599439560E+02  0.12500000000E+03  0.80419002446E+02 0. -1.
        -24    1    1    2    0    0  0.20171544893E+02  0.60203098566E+02 -0.71599439560E+02  0.12500000000E+03  0.80419002446E+02 0.  0.
</event>
<event>
 4    1  0.1653896E-001  0.1250000E+03  0.7546771E-02  0.1126479E+00
        -11   -1    0    0    0    0  0.00000000000E+00  0.00000000000E+00  0.12500000000E+03  0.12500000000E+03  0.00000000000E+00 0.  1.
         11   -1    0    0    0    0 -0.00000000000E+00 -0.00000000000E+00 -0.12500000000E+03  0.12500000000E+03  0.00000000000E+00 0. -1.
         24    1    1    2    0    0 -0.49900379273E+02  0.45613096431E+02  0.67728735615E+02  0.12500000000E+03  0.80419002446E+02 0.  1.
        -24    1    1    2    0    0  0.49900379273E+02 -0.45613096431E+02 -0.67728735615E+02  0.12500000000E+03  0.80419002446E+02 0. -1.
</event>
<event>
 4    1  0.1653896E-001  0.1250000E+03  0.7546771E-02  0.1126479E+00
        -11   -1    0    0    0    0  0.00000000000E+00  0.00000000000E+00  0.12500000000E+03  0.12500000000E+03  0.00000000000E+00 0.  1.
         11   -1    0    0    0    0 -0.00000000000E+00 -0.00000000000E+00 -0.12500000000E+03  0.12500000000E+03  0.00000000000E+00 0. -1.
         24    1    1    2    0    0  0.27087905022E+02 -0.17463723485E+02  0.90105759023E+02  0.12500000000E+03  0.80419002446E+02 0.  1.
        -24    1    1    2    0    0 -0.27087905022E+02  0.17463723485E+02 -0.90105759023E+02  0.12500000000E+03  0.80419002446E+02 0. -1.
</event>
<event>
 4    1  0.1653896E-001  0.1250000E+03  0.7546771E-02  0.1126479E+00
        -11   -1    0    0    0    0  0.00000000000E+00  0.00000000000E+00  0.12500000000E+03  0.12500000000E+03  0.00000000000E+00 0.  1.
         11   -1    0    0    0    0 -0.00000000000E+00 -0.00000000000E+00 -0.12500000000E+03  0.12500000000E+03  0.00000000000E+00 0. -1.
         24    1    1    2    0    0 -0.21881545631E+02 -0.12803908096E+02  0.92276984909E+02  0.12500000000E+03  0.80419002446E+02 0.  1.
        -24    1    1    2    0    0  0.21881545631E+02  0.12803908096E+02 -0.92276984909E+02  0.12500000000E+03  0.80419002446E+02 0. -1.
</event>
<event>
 4    1  0.1653896E-001  0.1250000E+03  0.7546771E-02  0.1126479E+00
        -11   -1    0    0    0    0  0.00000000000E+00  0.00000000000E+00  0.12500000000E+03  0.12500000000E+03  0.00000000000E+00 0.  1.
         11   -1    0    0    0    0 -0.00000000000E+00 -0.00000000000E+00 -0.12500000000E+03  0.12500000000E+03  0.00000000000E+00 0. -1.
         24    1    1    2    0    0 -0.32610481947E+01 -0.32536181779E+02  0.89936346854E+02  0.12500000000E+03  0.80419002446E+02 0.  1.
        -24    1    1    2    0    0  0.32610481947E+01  0.32536181779E+02 -0.89936346854E+02  0.12500000000E+03  0.80419002446E+02 0. -1.
</event>
<event>
 4    1  0.1653896E-001  0.1250000E+03  0.7546771E-02  0.1126479E+00
        -11   -1    0    0    0    0  0.00000000000E+00  0.00000000000E+00  0.12500000000E+03  0.12500000000E+03  0.00000000000E+00 0.  1.
         11   -1    0    0    0    0 -0.00000000000E+00 -0.00000000000E+00 -0.12500000000E+03  0.12500000000E+03  0.00000000000E+00 0. -1.
         24    1    1    2    0    0  0.84472325741E+02  0.44738203339E+02  0.45500979617E+01  0.12500000000E+03  0.80419002446E+02 0. -1.
        -24    1    1    2    0    0 -0.84472325741E+02 -0.44738203339E+02 -0.45500979617E+01  0.12500000000E+03  0.80419002446E+02 0. -1.
</event>
<event>
 4    1  0.1653896E-001  0.1250000E+03  0.7546771E-02  0.1126479E+00
        -11   -1    0    0    0    0  0.00000000000E+00  0.00000000000E+00  0.12500000000E+03  0.12500000000E+03  0.00000000000E+00 0.  1.
         11   -1    0    0    0    0 -0.00000000000E+00 -0.00000000000E+00 -0.12500000000E+03  0.12500000000E+03  0.00000000000E+00 0. -1.
         24    1    1    2    0    0  0.54911510590E+02  0.42920472625E+02  0.65577001151E+02  0.12500000000E+03  0.80419002446E+02 0.  1.
        -24    1    1    2    0    0 -0.54911510590E+02 -0.42920472625E+02 -0.65577001151E+02  0.12500000000E+03  0.80419002446E+02 0. -1.
</event>
<event>
 4    1  0.1653896E-001  0.1250000E+03  0.7546771E-02  0.1126479E+00
        -11   -1    0    0    0    0  0.00000000000E+00  0.00000000000E+00  0.12500000000E+03  0.12500000000E+03  0.00000000000E+00 0.  1.
         11   -1    0    0    0    0 -0.00000000000E+00 -0.00000000000E+00 -0.12500000000E+03  0.12500000000E+03  0.00000000000E+00 0. -1.
         24    1    1    2    0    0  0.32472077349E+02 -0.41352656342E+02  0.79958151878E+02  0.12500000000E+03  0.80419002446E+02 0.  1.
        -24    1    1    2    0    0 -0.32472077349E+02  0.41352656342E+02 -0.79958151878E+02  0.12500000000E+03  0.80419002446E+02 0. -1.
</event>
<event>
 4    1  0.1653896E-001  0.1250000E+03  0.7546771E-02  0.1126479E+00
        -11   -1    0    0    0    0  0.00000000000E+00  0.00000000000E+00  0.12500000000E+03  0.12500000000E+03  0.00000000000E+00 0.  1.
         11   -1    0    0    0    0 -0.00000000000E+00 -0.00000000000E+00 -0.12500000000E+03  0.12500000000E+03  0.00000000000E+00 0. -1.
         24    1    1    2    0    0 -0.50838389845E+01 -0.72363600805E+02 -0.62413523417E+02  0.12500000000E+03  0.80419002446E+02 0. -1.
        -24    1    1    2    0    0  0.50838389845E+01  0.72363600805E+02  0.62413523417E+02  0.12500000000E+03  0.80419002446E+02 0.  1.
</event>
<event>
 4    1  0.1653896E-001  0.1250000E+03  0.7546771E-02  0.1126479E+00
        -11   -1    0    0    0    0  0.00000000000E+00  0.00000000000E+00  0.12500000000E+03  0.12500000000E+03  0.00000000000E+00 0.  1.
         11   -1    0    0    0    0 -0.00000000000E+00 -0.00000000000E+00 -0.12500000000E+03  0.12500000000E+03  0.00000000000E+00 0. -1.
         24    1    1    2    0    0 -0.34017995429E+02  0.50988901874E+01  0.89300399503E+02  0.12500000000E+03  0.80419002446E+02 0.  1.
        -24    1    1    2    0    0  0.34017995429E+02 -0.50988901874E+01 -0.89300399503E+02  0.12500000000E+03  0.80419002446E+02 0. -1.
</event>
<event>
 4    1  0.1653896E-001  0.1250000E+03  0.7546771E-02  0.1126479E+00
        -11   -1    0    0    0    0  0.00000000000E+00  0.00000000000E+00  0.12500000000E+03  0.12500000000E+03  0.00000000000E+00 0.  1.
         11   -1    0    0    0    0 -0.00000000000E+00 -0.00000000000E+00 -0.12500000000E+03  0.12500000000E+03  0.00000000000E+00 0. -1.
         24    1    1    2    0    0  0.70090915904E+02 -0.63217497610E+02 -0.15766913122E+02  0.12500000000E+03  0.80419002446E+02 0. -1.
        -24    1    1    2    0    0 -0.70090915904E+02  0.63217497610E+02  0.15766913122E+02  0.12500000000E+03  0.80419002446E+02 0.  1.
</event>
<event>
 4    1  0.1653896E-001  0.1250000E+03  0.7546771E-02  0.1126479E+00
        -11   -1    0    0    0    0  0.00000000000E+00  0.00000000000E+00  0.12500000000E+03  0.12500000000E+03  0.00000000000E+00 0.  1.
         11   -1    0    0    0    0 -0.00000000000E+00 -0.00000000000E+00 -0.12500000000E+03  0.12500000000E+03  0.00000000000E+00 0. -1.
         24    1    1    2    0    0  0.46640898160E+02 -0.75460374546E+02 -0.35890702665E+02  0.12500000000E+03  0.80419002446E+02 0.  1.
        -24    1    1    2    0    0 -0.46640898160E+02  0.75460374546E+02  0.35890702665E+02  0.12500000000E+03  0.80419002446E+02 0.  0.
</event>
<event>
 4    1  0.1653896E-001  0.1250000E+03  0.7546771E-02  0.1126479E+00
        -11   -1    0    0    0    0  0.00000000000E+00  0.00000000000E+00  0.12500000000E+03  0.12500000000E+03  0.00000000000E+00 0.  1.
         11   -1    0    0    0    0 -0.00000000000E+00 -0.00000000000E+00 -0.12500000000E+03  0.12500000000E+03  0.00000000000E+00 0. -1.
         24    1    1    2    0    0 -0.88219153350E-01 -0.22491522056E+02  0.93015631474E+02  0.12500000000E+03  0.80419002446E+02 0.  1.
        -24    1    1    2    0    0  0.88219153350E-01  0.22491522056E+02 -0.93015631474E+02  0.12500000000E+03  0.80419002446E+02 0.  0.
</event>
<event>
 4    1  0.1653896E-001  0.1250000E+03  0.7546771E-02  0.1126479E+00
        -11   -1    0    0    0    0  0.00000000000E+00  0.00000000000E+00  0.12500000000E+03  0.12500000000E+03  0.00000000000E+00 0.  1.
         11   -1    0    0    0    0 -0.00000000000E+00 -0.00000000000E+00 -0.12500000000E+03  0.12500000000E+03  0.00000000000E+00 0. -1.
         24    1    1    2    0    0 -0.71286728051E+00  0.51638580641E+02  0.80565084591E+02  0.12500000000E+03  0.80419002446E+02 0.  1.
        -24    1    1    2    0    0  0.71286728051E+00 -0.51638580641E+02 -0.80565084591E+02  0.12500000000E+03  0.80419002446E+02 0.  1.
</event>
<event>
 4    1  0.1653896E-001  0.1250000E+03  0.7546771E-02  0.1126479E+00
        -11   -1    0    0    0    0  0.00000000000E+00  0.00000000000E+00  0.12500000000E+03  0.12500000000E+03  0.00000000000E+00 0.  1.
         11   -1    0    0    0    0 -0.00000000000E+00 -0.00000000000E+00 -0.12500000000E+03  0.12500000000E+03  0.00000000000E+00 0. -1.
         24    1    1    2    0    0 -0.43597280691E+01 -0.15154042032E+02  0.94388197498E+02  0.12500000000E+03  0.80419002446E+02 0.  1.
        -24    1    1    2    0    0  0.43597280691E+01  0.15154042032E+02 -0.94388197498E+02  0.12500000000E+03  0.80419002446E+02 0. -1.
</event>
<event>
 4    1  0.1653896E-001  0.1250000E+03  0.7546771E-02  0.1126479E+00
        -11   -1    0    0    0    0  0.00000000000E+00  0.00000000000E+00  0.12500000000E+03  0.12500000000E+03  0.00000000000E+00 0.  1.
         11   -1    0    0    0    0 -0.00000000000E+00 -0.00000000000E+00 -0.12500000000E+03  0.12500000000E+03  0.00000000000E+00 0. -1.
         24    1    1    2    0    0 -0.46890010797E+02  0.37541245942E+02  0.74496750172E+02  0.12500000000E+03  0.80419002446E+02 0.  1.
        -24    1    1    2    0    0  0.46890010797E+02 -0.37541245942E+02 -0.74496750172E+02  0.12500000000E+03  0.80419002446E+02 0. -1.
</event>
<event>
 4    1  0.1653896E-001  0.1250000E+03  0.7546771E-02  0.1126479E+00
        -11   -1    0    0    0    0  0.00000000000E+00  0.00000000000E+00  0.12500000000E+03  0.12500000000E+03  0.00000000000E+00 0.  1.
         11   -1    0    0    0    0 -0.00000000000E+00 -0.00000000000E+00 -0.12500000000E+03  0.12500000000E+03  0.00000000000E+00 0. -1.
         24    1    1    2    0    0 -0.26248759651E+02  0.62986248491E+02  0.67093361545E+02  0.12500000000E+03  0.80419002446E+02 0.  1.
        -24    1    1    2    0    0  0.26248759651E+02 -0.62986248491E+02 -0.67093361545E+02  0.12500000000E+03  0.80419002446E+02 0. -1.
</event>
<event>
 4    1  0.1653896E-001  0.1250000E+03  0.7546771E-02  0.1126479E+00
        -11   -1    0    0    0    0  0.00000000000E+00  0.00000000000E+00  0.12500000000E+03  0.12500000000E+03  0.00000000000E+00 0.  1.
         11   -1    0    0    0    0 -0.00000000000E+00 -0.00000000000E+00 -0.12500000000E+03  0.12500000000E+03  0.00000000000E+00 0. -1.
         24    1    1    2    0    0  0.20148968010E+02 -0.62190421093E+02  0.69886727338E+02  0.12500000000E+03  0.80419002446E+02 0.  1.
        -24    1    1    2    0    0 -0.20148968010E+02  0.62190421093E+02 -0.69886727338E+02  0.12500000000E+03  0.80419002446E+02 0. -1.
</event>
<event>
 4    1  0.1653896E-001  0.1250000E+03  0.7546771E-02  0.1126479E+00
        -11   -1    0    0    0    0  0.00000000000E+00  0.00000000000E+00  0.12500000000E+03  0.12500000000E+03  0.00000000000E+00 0.  1.
         11   -1    0    0    0    0 -0.00000000000E+00 -0.00000000000E+00 -0.12500000000E+03  0.12500000000E+03  0.00000000000E+00 0. -1.
         24    1    1    2    0    0 -0.20691271448E+02  0.17291292047E+02  0.91818661234E+02  0.12500000000E+03  0.80419002446E+02 0.  1.
        -24    1    1    2    0    0  0.20691271448E+02 -0.17291292047E+02 -0.91818661234E+02  0.12500000000E+03  0.80419002446E+02 0. -1.
</event>
<event>
 4    1  0.1653896E-001  0.1250000E+03  0.7546771E-02  0.1126479E+00
        -11   -1    0    0    0    0  0.00000000000E+00  0.00000000000E+00  0.12500000000E+03  0.12500000000E+03  0.00000000000E+00 0.  1.
         11   -1    0    0    0    0 -0.00000000000E+00 -0.00000000000E+00 -0.12500000000E+03  0.12500000000E+03  0.00000000000E+00 0. -1.
         24    1    1    2    0    0  0.57601371395E+01 -0.24998508511E+02  0.92193706065E+02  0.12500000000E+03  0.80419002446E+02 0.  1.
        -24    1    1    2    0    0 -0.57601371395E+01  0.24998508511E+02 -0.92193706065E+02  0.12500000000E+03  0.80419002446E+02 0. -1.
</event>
<event>
 4    1  0.1653896E-001  0.1250000E+03  0.7546771E-02  0.1126479E+00
        -11   -1    0    0    0    0  0.00000000000E+00  0.00000000000E+00  0.12500000000E+03  0.12500000000E+03  0.00000000000E+00 0.  1.
         11   -1    0    0    0    0 -0.00000000000E+00 -0.00000000000E+00 -0.12500000000E+03  0.12500000000E+03  0.00000000000E+00 0. -1.
         24    1    1    2    0    0 -0.44343875449E+02 -0.44309258577E+02  0.72305562442E+02  0.12500000000E+03  0.80419002446E+02 0.  1.
        -24    1    1    2    0    0  0.44343875449E+02  0.44309258577E+02 -0.72305562442E+02  0.12500000000E+03  0.80419002446E+02 0. -1.
</event>
<event>
 4    1  0.1653896E-001  0.1250000E+03  0.7546771E-02  0.1126479E+00
        -11   -1    0    0    0    0  0.00000000000E+00  0.00000000000E+00  0.12500000000E+03  0.12500000000E+03  0.00000000000E+00 0.  1.
         11   -1    0    0    0    0 -0.00000000000E+00 -0.00000000000E+00 -0.12500000000E+03  0.12500000000E+03  0.00000000000E+00 0. -1.
         24    1    1    2    0    0  0.18423619370E+02  0.73952855754E+02  0.57873391302E+02  0.12500000000E+03  0.80419002446E+02 0.  1.
        -24    1    1    2    0    0 -0.18423619370E+02 -0.73952855754E+02 -0.57873391302E+02  0.12500000000E+03  0.80419002446E+02 0. -1.
</event>
<event>
 4    1  0.1653896E-001  0.1250000E+03  0.7546771E-02  0.1126479E+00
        -11   -1    0    0    0    0  0.00000000000E+00  0.00000000000E+00  0.12500000000E+03  0.12500000000E+03  0.00000000000E+00 0.  1.
         11   -1    0    0    0    0 -0.00000000000E+00 -0.00000000000E+00 -0.12500000000E+03  0.12500000000E+03  0.00000000000E+00 0. -1.
         24    1    1    2    0    0 -0.13865090020E+02  0.44881336864E+01  0.94580124658E+02  0.12500000000E+03  0.80419002446E+02 0.  1.
        -24    1    1    2    0    0  0.13865090020E+02 -0.44881336864E+01 -0.94580124658E+02  0.12500000000E+03  0.80419002446E+02 0. -1.
</event>
<event>
 4    1  0.1653896E-001  0.1250000E+03  0.7546771E-02  0.1126479E+00
        -11   -1    0    0    0    0  0.00000000000E+00  0.00000000000E+00  0.12500000000E+03  0.12500000000E+03  0.00000000000E+00 0.  1.
         11   -1    0    0    0    0 -0.00000000000E+00 -0.00000000000E+00 -0.12500000000E+03  0.12500000000E+03  0.00000000000E+00 0. -1.
         24    1    1    2    0    0 -0.17798014367E+02 -0.89780234825E+02  0.27937862571E+02  0.12500000000E+03  0.80419002446E+02 0.  1.
        -24    1    1    2    0    0  0.17798014367E+02  0.89780234825E+02 -0.27937862571E+02  0.12500000000E+03  0.80419002446E+02 0. -1.
</event>
<event>
 4    1  0.1653896E-001  0.1250000E+03  0.7546771E-02  0.1126479E+00
        -11   -1    0    0    0    0  0.00000000000E+00  0.00000000000E+00  0.12500000000E+03  0.12500000000E+03  0.00000000000E+00 0.  1.
         11   -1    0    0    0    0 -0.00000000000E+00 -0.00000000000E+00 -0.12500000000E+03  0.12500000000E+03  0.00000000000E+00 0. -1.
         24    1    1    2    0    0  0.36913847649E+02  0.44653868727E+02  0.76165503380E+02  0.12500000000E+03  0.80419002446E+02 0.  1.
        -24    1    1    2    0    0 -0.36913847649E+02 -0.44653868727E+02 -0.76165503380E+02  0.12500000000E+03  0.80419002446E+02 0. -1.
</event>
<event>
 4    1  0.1653896E-001  0.1250000E+03  0.7546771E-02  0.1126479E+00
        -11   -1    0    0    0    0  0.00000000000E+00  0.00000000000E+00  0.12500000000E+03  0.12500000000E+03  0.00000000000E+00 0.  1.
         11   -1    0    0    0    0 -0.00000000000E+00 -0.00000000000E+00 -0.12500000000E+03  0.12500000000E+03  0.00000000000E+00 0. -1.
         24    1    1    2    0    0 -0.27555268567E+02 -0.70211268166E+01  0.91373929532E+02  0.12500000000E+03  0.80419002446E+02 0.  1.
        -24    1    1    2    0    0  0.27555268567E+02  0.70211268166E+01 -0.91373929532E+02  0.12500000000E+03  0.80419002446E+02 0. -1.
</event>
<event>
 4    1  0.1653896E-001  0.1250000E+03  0.7546771E-02  0.1126479E+00
        -11   -1    0    0    0    0  0.00000000000E+00  0.00000000000E+00  0.12500000000E+03  0.12500000000E+03  0.00000000000E+00 0.  1.
         11   -1    0    0    0    0 -0.00000000000E+00 -0.00000000000E+00 -0.12500000000E+03  0.12500000000E+03  0.00000000000E+00 0. -1.
         24    1    1    2    0    0  0.67375575372E+02 -0.17821434361E+01  0.67934820627E+02  0.12500000000E+03  0.80419002446E+02 0.  1.
        -24    1    1    2    0    0 -0.67375575372E+02  0.17821434361E+01 -0.67934820627E+02  0.12500000000E+03  0.80419002446E+02 0. -1.
</event>
<event>
 4    1  0.1653896E-001  0.1250000E+03  0.7546771E-02  0.1126479E+00
        -11   -1    0    0    0    0  0.00000000000E+00  0.00000000000E+00  0.12500000000E+03  0.12500000000E+03  0.00000000000E+00 0.  1.
         11   -1    0    0    0    0 -0.00000000000E+00 -0.00000000000E+00 -0.12500000000E+03  0.12500000000E+03  0.00000000000E+00 0. -1.
         24    1    1    2    0    0 -0.18420107630E+02 -0.42930208200E+02  0.83519344492E+02  0.12500000000E+03  0.80419002446E+02 0.  1.
        -24    1    1    2    0    0  0.18420107630E+02  0.42930208200E+02 -0.83519344492E+02  0.12500000000E+03  0.80419002446E+02 0. -1.
</event>
<event>
 4    1  0.1653896E-001  0.1250000E+03  0.7546771E-02  0.1126479E+00
        -11   -1    0    0    0    0  0.00000000000E+00  0.00000000000E+00  0.12500000000E+03  0.12500000000E+03  0.00000000000E+00 0.  1.
         11   -1    0    0    0    0 -0.00000000000E+00 -0.00000000000E+00 -0.12500000000E+03  0.12500000000E+03  0.00000000000E+00 0. -1.
         24    1    1    2    0    0  0.58993558955E+02  0.66905246218E+02  0.34658795074E+02  0.12500000000E+03  0.80419002446E+02 0.  1.
        -24    1    1    2    0    0 -0.58993558955E+02 -0.66905246218E+02 -0.34658795074E+02  0.12500000000E+03  0.80419002446E+02 0. -1.
</event>
<event>
 4    1  0.1653896E-001  0.1250000E+03  0.7546771E-02  0.1126479E+00
        -11   -1    0    0    0    0  0.00000000000E+00  0.00000000000E+00  0.12500000000E+03  0.12500000000E+03  0.00000000000E+00 0.  1.
         11   -1    0    0    0    0 -0.00000000000E+00 -0.00000000000E+00 -0.12500000000E+03  0.12500000000E+03  0.00000000000E+00 0. -1.
         24    1    1    2    0    0 -0.56023692014E+02 -0.59987901004E+02  0.49199407638E+02  0.12500000000E+03  0.80419002446E+02 0.  1.
        -24    1    1    2    0    0  0.56023692014E+02  0.59987901004E+02 -0.49199407638E+02  0.12500000000E+03  0.80419002446E+02 0. -1.
</event>
<event>
 4    1  0.1653896E-001  0.1250000E+03  0.7546771E-02  0.1126479E+00
        -11   -1    0    0    0    0  0.00000000000E+00  0.00000000000E+00  0.12500000000E+03  0.12500000000E+03  0.00000000000E+00 0.  1.
         11   -1    0    0    0    0 -0.00000000000E+00 -0.00000000000E+00 -0.12500000000E+03  0.12500000000E+03  0.00000000000E+00 0. -1.
         24    1    1    2    0    0 -0.21364535722E+01  0.13916250907E+02  0.94654939504E+02  0.12500000000E+03  0.80419002446E+02 0.  1.
        -24    1    1    2    0    0  0.21364535722E+01 -0.13916250907E+02 -0.94654939504E+02  0.12500000000E+03  0.80419002446E+02 0.  0.
</event>
<event>
 4    1  0.1653896E-001  0.1250000E+03  0.7546771E-02  0.1126479E+00
        -11   -1    0    0    0    0  0.00000000000E+00  0.00000000000E+00  0.12500000000E+03  0.12500000000E+03  0.00000000000E+00 0.  1.
         11   -1    0    0    0    0 -0.00000000000E+00 -0.00000000000E+00 -0.12500000000E+03  0.12500000000E+03  0.00000000000E+00 0. -1.
         24    1    1    2    0    0  0.22865238709E+02  0.91617471362E+02  0.15530738734E+02  0.12500000000E+03  0.80419002446E+02 0.  0.
        -24    1    1    2    0    0 -0.22865238709E+02 -0.91617471362E+02 -0.15530738734E+02  0.12500000000E+03  0.80419002446E+02 0. -1.
</event>
<event>
 4    1  0.1653896E-001  0.1250000E+03  0.7546771E-02  0.1126479E+00
        -11   -1    0    0    0    0  0.00000000000E+00  0.00000000000E+00  0.12500000000E+03  0.12500000000E+03  0.00000000000E+00 0.  1.
         11   -1    0    0    0    0 -0.00000000000E+00 -0.00000000000E+00 -0.12500000000E+03  0.12500000000E+03  0.00000000000E+00 0. -1.
         24    1    1    2    0    0 -0.10553558012E+02  0.38856249454E+02  0.86813583829E+02  0.12500000000E+03  0.80419002446E+02 0.  1.
        -24    1    1    2    0    0  0.10553558012E+02 -0.38856249454E+02 -0.86813583829E+02  0.12500000000E+03  0.80419002446E+02 0. -1.
</event>
<event>
 4    1  0.1653896E-001  0.1250000E+03  0.7546771E-02  0.1126479E+00
        -11   -1    0    0    0    0  0.00000000000E+00  0.00000000000E+00  0.12500000000E+03  0.12500000000E+03  0.00000000000E+00 0.  1.
         11   -1    0    0    0    0 -0.00000000000E+00 -0.00000000000E+00 -0.12500000000E+03  0.12500000000E+03  0.00000000000E+00 0. -1.
         24    1    1    2    0    0 -0.21045202685E+02 -0.34297137997E+02  0.86825052921E+02  0.12500000000E+03  0.80419002446E+02 0.  1.
        -24    1    1    2    0    0  0.21045202685E+02  0.34297137997E+02 -0.86825052921E+02  0.12500000000E+03  0.80419002446E+02 0. -1.
</event>
<event>
 4    1  0.1653896E-001  0.1250000E+03  0.7546771E-02  0.1126479E+00
        -11   -1    0    0    0    0  0.00000000000E+00  0.00000000000E+00  0.12500000000E+03  0.12500000000E+03  0.00000000000E+00 0.  1.
         11   -1    0    0    0    0 -0.00000000000E+00 -0.00000000000E+00 -0.12500000000E+03  0.12500000000E+03  0.00000000000E+00 0. -1.
         24    1    1    2    0    0 -0.69187458974E+01  0.25522094996E+02  0.91970308621E+02  0.12500000000E+03  0.80419002446E+02 0.  1.
        -24    1    1    2    0    0  0.69187458974E+01 -0.25522094996E+02 -0.91970308621E+02  0.12500000000E+03  0.80419002446E+02 0. -1.
</event>
<event>
 4    1  0.1653896E-001  0.1250000E+03  0.7546771E-02  0.1126479E+00
        -11   -1    0    0    0    0  0.00000000000E+00  0.00000000000E+00  0.12500000000E+03  0.12500000000E+03  0.00000000000E+00 0.  1.
         11   -1    0    0    0    0 -0.00000000000E+00 -0.00000000000E+00 -0.12500000000E+03  0.12500000000E+03  0.00000000000E+00 0. -1.
         24    1    1    2    0    0 -0.25913488199E+02  0.28828218005E+02  0.87494051350E+02  0.12500000000E+03  0.80419002446E+02 0.  1.
        -24    1    1    2    0    0  0.25913488199E+02 -0.28828218005E+02 -0.87494051350E+02  0.12500000000E+03  0.80419002446E+02 0. -1.
</event>
<event>
 4    1  0.1653896E-001  0.1250000E+03  0.7546771E-02  0.1126479E+00
        -11   -1    0    0    0    0  0.00000000000E+00  0.00000000000E+00  0.12500000000E+03  0.12500000000E+03  0.00000000000E+00 0.  1.
         11   -1    0    0    0    0 -0.00000000000E+00 -0.00000000000E+00 -0.12500000000E+03  0.12500000000E+03  0.00000000000E+00 0. -1.
         24    1    1    2    0    0  0.22333631923E+02  0.11556868982E+02  0.92333264375E+02  0.12500000000E+03  0.80419002446E+02 0.  1.
        -24    1    1    2    0    0 -0.22333631923E+02 -0.11556868982E+02 -0.92333264375E+02  0.12500000000E+03  0.80419002446E+02 0. -1.
</event>
<event>
 4    1  0.1653896E-001  0.1250000E+03  0.7546771E-02  0.1126479E+00
        -11   -1    0    0    0    0  0.00000000000E+00  0.00000000000E+00  0.12500000000E+03  0.12500000000E+03  0.00000000000E+00 0.  1.
         11   -1    0    0    0    0 -0.00000000000E+00 -0.00000000000E+00 -0.12500000000E+03  0.12500000000E+03  0.00000000000E+00 0. -1.
         24    1    1    2    0    0 -0.45722325596E+02 -0.60663682846E+02  0.58199403530E+02  0.12500000000E+03  0.80419002446E+02 0.  1.
        -24    1    1    2    0    0  0.45722325596E+02  0.60663682846E+02 -0.58199403530E+02  0.12500000000E+03  0.80419002446E+02 0. -1.
</event>
<event>
 4    1  0.1653896E-001  0.1250000E+03  0.7546771E-02  0.1126479E+00
        -11   -1    0    0    0    0  0.00000000000E+00  0.00000000000E+00  0.12500000000E+03  0.12500000000E+03  0.00000000000E+00 0.  1.
         11   -1    0    0    0    0 -0.00000000000E+00 -0.00000000000E+00 -0.12500000000E+03  0.12500000000E+03  0.00000000000E+00 0. -1.
         24    1    1    2    0    0  0.60467488295E+02 -0.23027643974E+02  0.70506698390E+02  0.12500000000E+03  0.80419002446E+02 0.  1.
        -24    1    1    2    0    0 -0.60467488295E+02  0.23027643974E+02 -0.70506698390E+02  0.12500000000E+03  0.80419002446E+02 0. -1.
</event>
<event>
 4    1  0.1653896E-001  0.1250000E+03  0.7546771E-02  0.1126479E+00
        -11   -1    0    0    0    0  0.00000000000E+00  0.00000000000E+00  0.12500000000E+03  0.12500000000E+03  0.00000000000E+00 0.  1.
         11   -1    0    0    0    0 -0.00000000000E+00 -0.00000000000E+00 -0.12500000000E+03  0.12500000000E+03  0.00000000000E+00 0. -1.
         24    1    1    2    0    0  0.33921620326E+02  0.15641831557E+02  0.88104715116E+02  0.12500000000E+03  0.80419002446E+02 0.  1.
        -24    1    1    2    0    0 -0.33921620326E+02 -0.15641831557E+02 -0.88104715116E+02  0.12500000000E+03  0.80419002446E+02 0. -1.
</event>
<event>
 4    1  0.1653896E-001  0.1250000E+03  0.7546771E-02  0.1126479E+00
        -11   -1    0    0    0    0  0.00000000000E+00  0.00000000000E+00  0.12500000000E+03  0.12500000000E+03  0.00000000000E+00 0.  1.
         11   -1    0    0    0    0 -0.00000000000E+00 -0.00000000000E+00 -0.12500000000E+03  0.12500000000E+03  0.00000000000E+00 0. -1.
         24    1    1    2    0    0  0.39553345302E+01  0.76811479366E+02  0.56939757745E+02  0.12500000000E+03  0.80419002446E+02 0.  0.
        -24    1    1    2    0    0 -0.39553345302E+01 -0.76811479366E+02 -0.56939757745E+02  0.12500000000E+03  0.80419002446E+02 0. -1.
</event>
<event>
 4    1  0.1653896E-001  0.1250000E+03  0.7546771E-02  0.1126479E+00
        -11   -1    0    0    0    0  0.00000000000E+00  0.00000000000E+00  0.12500000000E+03  0.12500000000E+03  0.00000000000E+00 0.  1.
         11   -1    0    0    0    0 -0.00000000000E+00 -0.00000000000E+00 -0.12500000000E+03  0.12500000000E+03  0.00000000000E+00 0. -1.
         24    1    1    2    0    0  0.23092971971E+02  0.11450022248E+02  0.92159620668E+02  0.12500000000E+03  0.80419002446E+02 0.  1.
        -24    1    1    2    0    0 -0.23092971971E+02 -0.11450022248E+02 -0.92159620668E+02  0.12500000000E+03  0.80419002446E+02 0. -1.
</event>
<event>
 4    1  0.1653896E-001  0.1250000E+03  0.7546771E-02  0.1126479E+00
        -11   -1    0    0    0    0  0.00000000000E+00  0.00000000000E+00  0.12500000000E+03  0.12500000000E+03  0.00000000000E+00 0.  1.
         11   -1    0    0    0    0 -0.00000000000E+00 -0.00000000000E+00 -0.12500000000E+03  0.12500000000E+03  0.00000000000E+00 0. -1.
         24    1    1    2    0    0 -0.44284365078E+02 -0.49646097425E+02  0.68789127526E+02  0.12500000000E+03  0.80419002446E+02 0.  1.
        -24    1    1    2    0    0  0.44284365078E+02  0.49646097425E+02 -0.68789127526E+02  0.12500000000E+03  0.80419002446E+02 0. -1.
</event>
<event>
 4    1  0.1653896E-001  0.1250000E+03  0.7546771E-02  0.1126479E+00
        -11   -1    0    0    0    0  0.00000000000E+00  0.00000000000E+00  0.12500000000E+03  0.12500000000E+03  0.00000000000E+00 0.  1.
         11   -1    0    0    0    0 -0.00000000000E+00 -0.00000000000E+00 -0.12500000000E+03  0.12500000000E+03  0.00000000000E+00 0. -1.
         24    1    1    2    0    0  0.60502752852E+01  0.71827394634E+02  0.62944448482E+02  0.12500000000E+03  0.80419002446E+02 0. -1.
        -24    1    1    2    0    0 -0.60502752852E+01 -0.71827394634E+02 -0.62944448482E+02  0.12500000000E+03  0.80419002446E+02 0.  1.
</event>
<event>
 4    1  0.1653896E-001  0.1250000E+03  0.7546771E-02  0.1126479E+00
        -11   -1    0    0    0    0  0.00000000000E+00  0.00000000000E+00  0.12500000000E+03  0.12500000000E+03  0.00000000000E+00 0.  1.
         11   -1    0    0    0    0 -0.00000000000E+00 -0.00000000000E+00 -0.12500000000E+03  0.12500000000E+03  0.00000000000E+00 0. -1.
         24    1    1    2    0    0 -0.33161865199E+02 -0.47856345850E+02  0.75946329102E+02  0.12500000000E+03  0.80419002446E+02 0.  1.
        -24    1    1    2    0    0  0.33161865199E+02  0.47856345850E+02 -0.75946329102E+02  0.12500000000E+03  0.80419002446E+02 0. -1.
</event>
<event>
 4    1  0.1653896E-001  0.1250000E+03  0.7546771E-02  0.1126479E+00
        -11   -1    0    0    0    0  0.00000000000E+00  0.00000000000E+00  0.12500000000E+03  0.12500000000E+03  0.00000000000E+00 0.  1.
         11   -1    0    0    0    0 -0.00000000000E+00 -0.00000000000E+00 -0.12500000000E+03  0.12500000000E+03  0.00000000000E+00 0. -1.
         24    1    1    2    0    0  0.90171307618E+02  0.16802859279E+02 -0.27287052758E+02  0.12500000000E+03  0.80419002446E+02 0. -1.
        -24    1    1    2    0    0 -0.90171307618E+02 -0.16802859279E+02  0.27287052758E+02  0.12500000000E+03  0.80419002446E+02 0.  1.
</event>
<event>
 4    1  0.1653896E-001  0.1250000E+03  0.7546771E-02  0.1126479E+00
        -11   -1    0    0    0    0  0.00000000000E+00  0.00000000000E+00  0.12500000000E+03  0.12500000000E+03  0.00000000000E+00 0.  1.
         11   -1    0    0    0    0 -0.00000000000E+00 -0.00000000000E+00 -0.12500000000E+03  0.12500000000E+03  0.00000000000E+00 0. -1.
         24    1    1    2    0    0 -0.27907725772E+02 -0.64712138311E+02  0.64740111547E+02  0.12500000000E+03  0.80419002446E+02 0.  1.
        -24    1    1    2    0    0  0.27907725772E+02  0.64712138311E+02 -0.64740111547E+02  0.12500000000E+03  0.80419002446E+02 0. -1.
</event>
<event>
 4    1  0.1653896E-001  0.1250000E+03  0.7546771E-02  0.1126479E+00
        -11   -1    0    0    0    0  0.00000000000E+00  0.00000000000E+00  0.12500000000E+03  0.12500000000E+03  0.00000000000E+00 0.  1.
         11   -1    0    0    0    0 -0.00000000000E+00 -0.00000000000E+00 -0.12500000000E+03  0.12500000000E+03  0.00000000000E+00 0. -1.
         24    1    1    2    0    0 -0.24893830450E+02  0.83538016116E+02  0.39490266074E+02  0.12500000000E+03  0.80419002446E+02 0.  1.
        -24    1    1    2    0    0  0.24893830450E+02 -0.83538016116E+02 -0.39490266074E+02  0.12500000000E+03  0.80419002446E+02 0. -1.
</event>
<event>
 4    1  0.1653896E-001  0.1250000E+03  0.7546771E-02  0.1126479E+00
        -11   -1    0    0    0    0  0.00000000000E+00  0.00000000000E+00  0.12500000000E+03  0.12500000000E+03  0.00000000000E+00 0.  1.
         11   -1    0    0    0    0 -0.00000000000E+00 -0.00000000000E+00 -0.12500000000E+03  0.12500000000E+03  0.00000000000E+00 0. -1.
         24    1    1    2    0    0 -0.16040895873E+02 -0.29088886331E+02  0.89745809915E+02  0.12500000000E+03  0.80419002446E+02 0.  1.
        -24    1    1    2    0    0  0.16040895873E+02  0.29088886331E+02 -0.89745809915E+02  0.12500000000E+03  0.80419002446E+02 0. -1.
</event>
<event>
 4    1  0.1653896E-001  0.1250000E+03  0.7546771E-02  0.1126479E+00
        -11   -1    0    0    0    0  0.00000000000E+00  0.00000000000E+00  0.12500000000E+03  0.12500000000E+03  0.00000000000E+00 0.  1.
         11   -1    0    0    0    0 -0.00000000000E+00 -0.00000000000E+00 -0.12500000000E+03  0.12500000000E+03  0.00000000000E+00 0. -1.
         24    1    1    2    0    0  0.46413931303E+02 -0.35500843901E+02  0.75784042575E+02  0.12500000000E+03  0.80419002446E+02 0.  1.
        -24    1    1    2    0    0 -0.46413931303E+02  0.35500843901E+02 -0.75784042575E+02  0.12500000000E+03  0.80419002446E+02 0. -1.
</event>
<event>
 4    1  0.1653896E-001  0.1250000E+03  0.7546771E-02  0.1126479E+00
        -11   -1    0    0    0    0  0.00000000000E+00  0.00000000000E+00  0.12500000000E+03  0.12500000000E+03  0.00000000000E+00 0.  1.
         11   -1    0    0    0    0 -0.00000000000E+00 -0.00000000000E+00 -0.12500000000E+03  0.12500000000E+03  0.00000000000E+00 0. -1.
         24    1    1    2    0    0  0.87121956612E+02 -0.39211111188E+02 -0.54806460444E+01  0.12500000000E+03  0.80419002446E+02 0.  0.
        -24    1    1    2    0    0 -0.87121956612E+02  0.39211111188E+02  0.54806460444E+01  0.12500000000E+03  0.80419002446E+02 0.  0.
</event>
<event>
 4    1  0.1653896E-001  0.1250000E+03  0.7546771E-02  0.1126479E+00
        -11   -1    0    0    0    0  0.00000000000E+00  0.00000000000E+00  0.12500000000E+03  0.12500000000E+03  0.00000000000E+00 0.  1.
         11   -1    0    0    0    0 -0.00000000000E+00 -0.00000000000E+00 -0.12500000000E+03  0.12500000000E+03  0.00000000000E+00 0. -1.
         24    1    1    2    0    0 -0.15005475108E+02  0.78904147126E-02  0.94512537264E+02  0.12500000000E+03  0.80419002446E+02 0.  1.
        -24    1    1    2    0    0  0.15005475108E+02 -0.78904147126E-02 -0.94512537264E+02  0.12500000000E+03  0.80419002446E+02 0.  0.
</event>
<event>
 4    1  0.1653896E-001  0.1250000E+03  0.7546771E-02  0.1126479E+00
        -11   -1    0    0    0    0  0.00000000000E+00  0.00000000000E+00  0.12500000000E+03  0.12500000000E+03  0.00000000000E+00 0.  1.
         11   -1    0    0    0    0 -0.00000000000E+00 -0.00000000000E+00 -0.12500000000E+03  0.12500000000E+03  0.00000000000E+00 0. -1.
         24    1    1    2    0    0 -0.27738423126E+00  0.12927753597E+02  0.94818670580E+02  0.12500000000E+03  0.80419002446E+02 0.  1.
        -24    1    1    2    0    0  0.27738423126E+00 -0.12927753597E+02 -0.94818670580E+02  0.12500000000E+03  0.80419002446E+02 0. -1.
</event>
<event>
 4    1  0.1653896E-001  0.1250000E+03  0.7546771E-02  0.1126479E+00
        -11   -1    0    0    0    0  0.00000000000E+00  0.00000000000E+00  0.12500000000E+03  0.12500000000E+03  0.00000000000E+00 0.  1.
         11   -1    0    0    0    0 -0.00000000000E+00 -0.00000000000E+00 -0.12500000000E+03  0.12500000000E+03  0.00000000000E+00 0. -1.
         24    1    1    2    0    0  0.45289649105E+02  0.17891580798E+02  0.82380356069E+02  0.12500000000E+03  0.80419002446E+02 0.  1.
        -24    1    1    2    0    0 -0.45289649105E+02 -0.17891580798E+02 -0.82380356069E+02  0.12500000000E+03  0.80419002446E+02 0. -1.
</event>
<event>
 4    1  0.1653896E-001  0.1250000E+03  0.7546771E-02  0.1126479E+00
        -11   -1    0    0    0    0  0.00000000000E+00  0.00000000000E+00  0.12500000000E+03  0.12500000000E+03  0.00000000000E+00 0.  1.
         11   -1    0    0    0    0 -0.00000000000E+00 -0.00000000000E+00 -0.12500000000E+03  0.12500000000E+03  0.00000000000E+00 0. -1.
         24    1    1    2    0    0 -0.47555353506E+02 -0.33992371640E+02  0.75768008215E+02  0.12500000000E+03  0.80419002446E+02 0.  1.
        -24    1    1    2    0    0  0.47555353506E+02  0.33992371640E+02 -0.75768008215E+02  0.12500000000E+03  0.80419002446E+02 0. -1.
</event>
<event>
 4    1  0.1653896E-001  0.1250000E+03  0.7546771E-02  0.1126479E+00
        -11   -1    0    0    0    0  0.00000000000E+00  0.00000000000E+00  0.12500000000E+03  0.12500000000E+03  0.00000000000E+00 0.  1.
         11   -1    0    0    0    0 -0.00000000000E+00 -0.00000000000E+00 -0.12500000000E+03  0.12500000000E+03  0.00000000000E+00 0. -1.
         24    1    1    2    0    0  0.19649438074E+02 -0.25803815799E+02  0.90032475914E+02  0.12500000000E+03  0.80419002446E+02 0.  1.
        -24    1    1    2    0    0 -0.19649438074E+02  0.25803815799E+02 -0.90032475914E+02  0.12500000000E+03  0.80419002446E+02 0. -1.
</event>
<event>
 4    1  0.1653896E-001  0.1250000E+03  0.7546771E-02  0.1126479E+00
        -11   -1    0    0    0    0  0.00000000000E+00  0.00000000000E+00  0.12500000000E+03  0.12500000000E+03  0.00000000000E+00 0.  1.
         11   -1    0    0    0    0 -0.00000000000E+00 -0.00000000000E+00 -0.12500000000E+03  0.12500000000E+03  0.00000000000E+00 0. -1.
         24    1    1    2    0    0  0.22767255159E+02 -0.11398402090E+02  0.92247019290E+02  0.12500000000E+03  0.80419002446E+02 0.  1.
        -24    1    1    2    0    0 -0.22767255159E+02  0.11398402090E+02 -0.92247019290E+02  0.12500000000E+03  0.80419002446E+02 0. -1.
</event>
<event>
 4    1  0.1653896E-001  0.1250000E+03  0.7546771E-02  0.1126479E+00
        -11   -1    0    0    0    0  0.00000000000E+00  0.00000000000E+00  0.12500000000E+03  0.12500000000E+03  0.00000000000E+00 0.  1.
         11   -1    0    0    0    0 -0.00000000000E+00 -0.00000000000E+00 -0.12500000000E+03  0.12500000000E+03  0.00000000000E+00 0. -1.
         24    1    1    2    0    0 -0.35228597611E+02 -0.36804866558E+02  0.81006985832E+02  0.12500000000E+03  0.80419002446E+02 0.  1.
        -24    1    1    2    0    0  0.35228597611E+02  0.36804866558E+02 -0.81006985832E+02  0.12500000000E+03  0.80419002446E+02 0. -1.
</event>
<event>
 4    1  0.1653896E-001  0.1250000E+03  0.7546771E-02  0.1126479E+00
        -11   -1    0    0    0    0  0.00000000000E+00  0.00000000000E+00  0.12500000000E+03  0.12500000000E+03  0.00000000000E+00 0.  1.
         11   -1    0    0    0    0 -0.00000000000E+00 -0.00000000000E+00 -0.12500000000E+03  0.12500000000E+03  0.00000000000E+00 0. -1.
         24    1    1    2    0    0 -0.37937718601E+02 -0.51927676231E+02  0.70866282492E+02  0.12500000000E+03  0.80419002446E+02 0.  1.
        -24    1    1    2    0    0  0.37937718601E+02  0.51927676231E+02 -0.70866282492E+02  0.12500000000E+03  0.80419002446E+02 0. -1.
</event>
<event>
 4    1  0.1653896E-001  0.1250000E+03  0.7546771E-02  0.1126479E+00
        -11   -1    0    0    0    0  0.00000000000E+00  0.00000000000E+00  0.12500000000E+03  0.12500000000E+03  0.00000000000E+00 0.  1.
         11   -1    0    0    0    0 -0.00000000000E+00 -0.00000000000E+00 -0.12500000000E+03  0.12500000000E+03  0.00000000000E+00 0. -1.
         24    1    1    2    0    0 -0.12669090311E+02 -0.16985958881E+02  0.93320712584E+02  0.12500000000E+03  0.80419002446E+02 0.  1.
        -24    1    1    2    0    0  0.12669090311E+02  0.16985958881E+02 -0.93320712584E+02  0.12500000000E+03  0.80419002446E+02 0. -1.
</event>
<event>
 4    1  0.1653896E-001  0.1250000E+03  0.7546771E-02  0.1126479E+00
        -11   -1    0    0    0    0  0.00000000000E+00  0.00000000000E+00  0.12500000000E+03  0.12500000000E+03  0.00000000000E+00 0.  1.
         11   -1    0    0    0    0 -0.00000000000E+00 -0.00000000000E+00 -0.12500000000E+03  0.12500000000E+03  0.00000000000E+00 0. -1.
         24    1    1    2    0    0 -0.98712763262E+01  0.38627701136E+02  0.86995647329E+02  0.12500000000E+03  0.80419002446E+02 0.  1.
        -24    1    1    2    0    0  0.98712763262E+01 -0.38627701136E+02 -0.86995647329E+02  0.12500000000E+03  0.80419002446E+02 0. -1.
</event>
<event>
 4    1  0.1653896E-001  0.1250000E+03  0.7546771E-02  0.1126479E+00
        -11   -1    0    0    0    0  0.00000000000E+00  0.00000000000E+00  0.12500000000E+03  0.12500000000E+03  0.00000000000E+00 0.  1.
         11   -1    0    0    0    0 -0.00000000000E+00 -0.00000000000E+00 -0.12500000000E+03  0.12500000000E+03  0.00000000000E+00 0. -1.
         24    1    1    2    0    0  0.20117441028E+02 -0.29938562131E+02  0.88638338825E+02  0.12500000000E+03  0.80419002446E+02 0.  1.
        -24    1    1    2    0    0 -0.20117441028E+02  0.29938562131E+02 -0.88638338825E+02  0.12500000000E+03  0.80419002446E+02 0. -1.
</event>
<event>
 4    1  0.1653896E-001  0.1250000E+03  0.7546771E-02  0.1126479E+00
        -11   -1    0    0    0    0  0.00000000000E+00  0.00000000000E+00  0.12500000000E+03  0.12500000000E+03  0.00000000000E+00 0.  1.
         11   -1    0    0    0    0 -0.00000000000E+00 -0.00000000000E+00 -0.12500000000E+03  0.12500000000E+03  0.00000000000E+00 0. -1.
         24    1    1    2    0    0 -0.66745270423E+02  0.63796747138E+02  0.25156072355E+02  0.12500000000E+03  0.80419002446E+02 0.  0.
        -24    1    1    2    0    0  0.66745270423E+02 -0.63796747138E+02 -0.25156072355E+02  0.12500000000E+03  0.80419002446E+02 0. -1.
</event>
<event>
 4    1  0.1653896E-001  0.1250000E+03  0.7546771E-02  0.1126479E+00
        -11   -1    0    0    0    0  0.00000000000E+00  0.00000000000E+00  0.12500000000E+03  0.12500000000E+03  0.00000000000E+00 0.  1.
         11   -1    0    0    0    0 -0.00000000000E+00 -0.00000000000E+00 -0.12500000000E+03  0.12500000000E+03  0.00000000000E+00 0. -1.
         24    1    1    2    0    0 -0.64162465767E+02  0.47621753430E+02  0.52660522524E+02  0.12500000000E+03  0.80419002446E+02 0.  1.
        -24    1    1    2    0    0  0.64162465767E+02 -0.47621753430E+02 -0.52660522524E+02  0.12500000000E+03  0.80419002446E+02 0. -1.
</event>
<event>
 4    1  0.1653896E-001  0.1250000E+03  0.7546771E-02  0.1126479E+00
        -11   -1    0    0    0    0  0.00000000000E+00  0.00000000000E+00  0.12500000000E+03  0.12500000000E+03  0.00000000000E+00 0.  1.
         11   -1    0    0    0    0 -0.00000000000E+00 -0.00000000000E+00 -0.12500000000E+03  0.12500000000E+03  0.00000000000E+00 0. -1.
         24    1    1    2    0    0 -0.36047492365E+02 -0.77689219380E+01  0.88306320225E+02  0.12500000000E+03  0.80419002446E+02 0.  1.
        -24    1    1    2    0    0  0.36047492365E+02  0.77689219380E+01 -0.88306320225E+02  0.12500000000E+03  0.80419002446E+02 0. -1.
</event>
<event>
 4    1  0.1653896E-001  0.1250000E+03  0.7546771E-02  0.1126479E+00
        -11   -1    0    0    0    0  0.00000000000E+00  0.00000000000E+00  0.12500000000E+03  0.12500000000E+03  0.00000000000E+00 0.  1.
         11   -1    0    0    0    0 -0.00000000000E+00 -0.00000000000E+00 -0.12500000000E+03  0.12500000000E+03  0.00000000000E+00 0. -1.
         24    1    1    2    0    0 -0.75178279481E+01  0.95257570802E+02  0.52212559206E+01  0.12500000000E+03  0.80419002446E+02 0. -1.
        -24    1    1    2    0    0  0.75178279481E+01 -0.95257570802E+02 -0.52212559206E+01  0.12500000000E+03  0.80419002446E+02 0.  1.
</event>
<event>
 4    1  0.1653896E-001  0.1250000E+03  0.7546771E-02  0.1126479E+00
        -11   -1    0    0    0    0  0.00000000000E+00  0.00000000000E+00  0.12500000000E+03  0.12500000000E+03  0.00000000000E+00 0.  1.
         11   -1    0    0    0    0 -0.00000000000E+00 -0.00000000000E+00 -0.12500000000E+03  0.12500000000E+03  0.00000000000E+00 0. -1.
         24    1    1    2    0    0  0.48966894490E+02  0.21461329866E+02  0.79369002829E+02  0.12500000000E+03  0.80419002446E+02 0.  1.
        -24    1    1    2    0    0 -0.48966894490E+02 -0.21461329866E+02 -0.79369002829E+02  0.12500000000E+03  0.80419002446E+02 0. -1.
</event>
<event>
 4    1  0.1653896E-001  0.1250000E+03  0.7546771E-02  0.1126479E+00
        -11   -1    0    0    0    0  0.00000000000E+00  0.00000000000E+00  0.12500000000E+03  0.12500000000E+03  0.00000000000E+00 0.  1.
         11   -1    0    0    0    0 -0.00000000000E+00 -0.00000000000E+00 -0.12500000000E+03  0.12500000000E+03  0.00000000000E+00 0. -1.
         24    1    1    2    0    0  0.70764789938E+02 -0.64213823839E+02 -0.51684986845E+01  0.12500000000E+03  0.80419002446E+02 0. -1.
        -24    1    1    2    0    0 -0.70764789938E+02  0.64213823839E+02  0.51684986845E+01  0.12500000000E+03  0.80419002446E+02 0.  1.
</event>
<event>
 4    1  0.1653896E-001  0.1250000E+03  0.7546771E-02  0.1126479E+00
        -11   -1    0    0    0    0  0.00000000000E+00  0.00000000000E+00  0.12500000000E+03  0.12500000000E+03  0.00000000000E+00 0. -1.
         11   -1    0    0    0    0 -0.00000000000E+00 -0.00000000000E+00 -0.12500000000E+03  0.12500000000E+03  0.00000000000E+00 0.  1.
         24    1    1    2    0    0 -0.87234044673E+02  0.38979897017E+02 -0.53453834350E+01  0.12500000000E+03  0.80419002446E+02 0.  0.
        -24    1    1    2    0    0  0.87234044673E+02 -0.38979897017E+02  0.53453834350E+01  0.12500000000E+03  0.80419002446E+02 0.  0.
</event>
<event>
 4    1  0.1653896E-001  0.1250000E+03  0.7546771E-02  0.1126479E+00
        -11   -1    0    0    0    0  0.00000000000E+00  0.00000000000E+00  0.12500000000E+03  0.12500000000E+03  0.00000000000E+00 0.  1.
         11   -1    0    0    0    0 -0.00000000000E+00 -0.00000000000E+00 -0.12500000000E+03  0.12500000000E+03  0.00000000000E+00 0. -1.
         24    1    1    2    0    0  0.12108959736E+01  0.81754779385E+02  0.49723976352E+02  0.12500000000E+03  0.80419002446E+02 0.  1.
        -24    1    1    2    0    0 -0.12108959736E+01 -0.81754779385E+02 -0.49723976352E+02  0.12500000000E+03  0.80419002446E+02 0. -1.
</event>
<event>
 4    1  0.1653896E-001  0.1250000E+03  0.7546771E-02  0.1126479E+00
        -11   -1    0    0    0    0  0.00000000000E+00  0.00000000000E+00  0.12500000000E+03  0.12500000000E+03  0.00000000000E+00 0.  1.
         11   -1    0    0    0    0 -0.00000000000E+00 -0.00000000000E+00 -0.12500000000E+03  0.12500000000E+03  0.00000000000E+00 0. -1.
         24    1    1    2    0    0 -0.53683761636E+02 -0.69768745780E+02  0.37525456620E+02  0.12500000000E+03  0.80419002446E+02 0.  1.
        -24    1    1    2    0    0  0.53683761636E+02  0.69768745780E+02 -0.37525456620E+02  0.12500000000E+03  0.80419002446E+02 0. -1.
</event>
<event>
 4    1  0.1653896E-001  0.1250000E+03  0.7546771E-02  0.1126479E+00
        -11   -1    0    0    0    0  0.00000000000E+00  0.00000000000E+00  0.12500000000E+03  0.12500000000E+03  0.00000000000E+00 0.  1.
         11   -1    0    0    0    0 -0.00000000000E+00 -0.00000000000E+00 -0.12500000000E+03  0.12500000000E+03  0.00000000000E+00 0. -1.
         24    1    1    2    0    0  0.25322724400E+02  0.79792551044E+01  0.91939519047E+02  0.12500000000E+03  0.80419002446E+02 0.  1.
        -24    1    1    2    0    0 -0.25322724400E+02 -0.79792551044E+01 -0.91939519047E+02  0.12500000000E+03  0.80419002446E+02 0. -1.
</event>
<event>
 4    1  0.1653896E-001  0.1250000E+03  0.7546771E-02  0.1126479E+00
        -11   -1    0    0    0    0  0.00000000000E+00  0.00000000000E+00  0.12500000000E+03  0.12500000000E+03  0.00000000000E+00 0.  1.
         11   -1    0    0    0    0 -0.00000000000E+00 -0.00000000000E+00 -0.12500000000E+03  0.12500000000E+03  0.00000000000E+00 0. -1.
         24    1    1    2    0    0  0.27652057687E+02 -0.45823826708E+02  0.79330477480E+02  0.12500000000E+03  0.80419002446E+02 0.  1.
        -24    1    1    2    0    0 -0.27652057687E+02  0.45823826708E+02 -0.79330477480E+02  0.12500000000E+03  0.80419002446E+02 0. -1.
</event>
<event>
 4    1  0.1653896E-001  0.1250000E+03  0.7546771E-02  0.1126479E+00
        -11   -1    0    0    0    0  0.00000000000E+00  0.00000000000E+00  0.12500000000E+03  0.12500000000E+03  0.00000000000E+00 0.  1.
         11   -1    0    0    0    0 -0.00000000000E+00 -0.00000000000E+00 -0.12500000000E+03  0.12500000000E+03  0.00000000000E+00 0. -1.
         24    1    1    2    0    0  0.36060611081E+02  0.42191970613E+02  0.77956744351E+02  0.12500000000E+03  0.80419002446E+02 0.  1.
        -24    1    1    2    0    0 -0.36060611081E+02 -0.42191970613E+02 -0.77956744351E+02  0.12500000000E+03  0.80419002446E+02 0. -1.
</event>
<event>
 4    1  0.1653896E-001  0.1250000E+03  0.7546771E-02  0.1126479E+00
        -11   -1    0    0    0    0  0.00000000000E+00  0.00000000000E+00  0.12500000000E+03  0.12500000000E+03  0.00000000000E+00 0.  1.
         11   -1    0    0    0    0 -0.00000000000E+00 -0.00000000000E+00 -0.12500000000E+03  0.12500000000E+03  0.00000000000E+00 0. -1.
         24    1    1    2    0    0 -0.58559451353E+01 -0.44772781553E+02  0.84373514708E+02  0.12500000000E+03  0.80419002446E+02 0.  1.
        -24    1    1    2    0    0  0.58559451353E+01  0.44772781553E+02 -0.84373514708E+02  0.12500000000E+03  0.80419002446E+02 0. -1.
</event>
<event>
 4    1  0.1653896E-001  0.1250000E+03  0.7546771E-02  0.1126479E+00
        -11   -1    0    0    0    0  0.00000000000E+00  0.00000000000E+00  0.12500000000E+03  0.12500000000E+03  0.00000000000E+00 0.  1.
         11   -1    0    0    0    0 -0.00000000000E+00 -0.00000000000E+00 -0.12500000000E+03  0.12500000000E+03  0.00000000000E+00 0. -1.
         24    1    1    2    0    0  0.78794217525E+02 -0.34739023508E+02  0.41742730817E+02  0.12500000000E+03  0.80419002446E+02 0. -1.
        -24    1    1    2    0    0 -0.78794217525E+02  0.34739023508E+02 -0.41742730817E+02  0.12500000000E+03  0.80419002446E+02 0.  0.
</event>
<event>
 4    1  0.1653896E-001  0.1250000E+03  0.7546771E-02  0.1126479E+00
        -11   -1    0    0    0    0  0.00000000000E+00  0.00000000000E+00  0.12500000000E+03  0.12500000000E+03  0.00000000000E+00 0.  1.
         11   -1    0    0    0    0 -0.00000000000E+00 -0.00000000000E+00 -0.12500000000E+03  0.12500000000E+03  0.00000000000E+00 0. -1.
         24    1    1    2    0    0 -0.43291221240E+01 -0.79735866569E+02  0.52737409206E+02  0.12500000000E+03  0.80419002446E+02 0.  1.
        -24    1    1    2    0    0  0.43291221240E+01  0.79735866569E+02 -0.52737409206E+02  0.12500000000E+03  0.80419002446E+02 0. -1.
</event>
<event>
 4    1  0.1653896E-001  0.1250000E+03  0.7546771E-02  0.1126479E+00
        -11   -1    0    0    0    0  0.00000000000E+00  0.00000000000E+00  0.12500000000E+03  0.12500000000E+03  0.00000000000E+00 0.  1.
         11   -1    0    0    0    0 -0.00000000000E+00 -0.00000000000E+00 -0.12500000000E+03  0.12500000000E+03  0.00000000000E+00 0. -1.
         24    1    1    2    0    0 -0.78831121297E+02 -0.32383816064E+02  0.43528459860E+02  0.12500000000E+03  0.80419002446E+02 0.  1.
        -24    1    1    2    0    0  0.78831121297E+02  0.32383816064E+02 -0.43528459860E+02  0.12500000000E+03  0.80419002446E+02 0. -1.
</event>
<event>
 4    1  0.1653896E-001  0.1250000E+03  0.7546771E-02  0.1126479E+00
        -11   -1    0    0    0    0  0.00000000000E+00  0.00000000000E+00  0.12500000000E+03  0.12500000000E+03  0.00000000000E+00 0.  1.
         11   -1    0    0    0    0 -0.00000000000E+00 -0.00000000000E+00 -0.12500000000E+03  0.12500000000E+03  0.00000000000E+00 0. -1.
         24    1    1    2    0    0 -0.30826990278E+02 -0.87615342475E+02  0.23044141968E+02  0.12500000000E+03  0.80419002446E+02 0.  1.
        -24    1    1    2    0    0  0.30826990278E+02  0.87615342475E+02 -0.23044141968E+02  0.12500000000E+03  0.80419002446E+02 0. -1.
</event>
<event>
 4    1  0.1653896E-001  0.1250000E+03  0.7546771E-02  0.1126479E+00
        -11   -1    0    0    0    0  0.00000000000E+00  0.00000000000E+00  0.12500000000E+03  0.12500000000E+03  0.00000000000E+00 0.  1.
         11   -1    0    0    0    0 -0.00000000000E+00 -0.00000000000E+00 -0.12500000000E+03  0.12500000000E+03  0.00000000000E+00 0. -1.
         24    1    1    2    0    0 -0.30849744247E+02 -0.59075543776E+02  0.68674285239E+02  0.12500000000E+03  0.80419002446E+02 0.  1.
        -24    1    1    2    0    0  0.30849744247E+02  0.59075543776E+02 -0.68674285239E+02  0.12500000000E+03  0.80419002446E+02 0. -1.
</event>
<event>
 4    1  0.1653896E-001  0.1250000E+03  0.7546771E-02  0.1126479E+00
        -11   -1    0    0    0    0  0.00000000000E+00  0.00000000000E+00  0.12500000000E+03  0.12500000000E+03  0.00000000000E+00 0.  1.
         11   -1    0    0    0    0 -0.00000000000E+00 -0.00000000000E+00 -0.12500000000E+03  0.12500000000E+03  0.00000000000E+00 0. -1.
         24    1    1    2    0    0 -0.34905116036E+02 -0.63029256192E+02  0.62981979836E+02  0.12500000000E+03  0.80419002446E+02 0.  1.
        -24    1    1    2    0    0  0.34905116036E+02  0.63029256192E+02 -0.62981979836E+02  0.12500000000E+03  0.80419002446E+02 0. -1.
</event>
<event>
 4    1  0.1653896E-001  0.1250000E+03  0.7546771E-02  0.1126479E+00
        -11   -1    0    0    0    0  0.00000000000E+00  0.00000000000E+00  0.12500000000E+03  0.12500000000E+03  0.00000000000E+00 0.  1.
         11   -1    0    0    0    0 -0.00000000000E+00 -0.00000000000E+00 -0.12500000000E+03  0.12500000000E+03  0.00000000000E+00 0. -1.
         24    1    1    2    0    0 -0.92787536428E+02  0.19974743477E+02 -0.12217477333E+02  0.12500000000E+03  0.80419002446E+02 0. -1.
        -24    1    1    2    0    0  0.92787536428E+02 -0.19974743477E+02  0.12217477333E+02  0.12500000000E+03  0.80419002446E+02 0.  1.
</event>
<event>
 4    1  0.1653896E-001  0.1250000E+03  0.7546771E-02  0.1126479E+00
        -11   -1    0    0    0    0  0.00000000000E+00  0.00000000000E+00  0.12500000000E+03  0.12500000000E+03  0.00000000000E+00 0.  1.
         11   -1    0    0    0    0 -0.00000000000E+00 -0.00000000000E+00 -0.12500000000E+03  0.12500000000E+03  0.00000000000E+00 0. -1.
         24    1    1    2    0    0  0.92569464481E+00  0.32502658001E+02  0.90002801945E+02  0.12500000000E+03  0.80419002446E+02 0.  1.
        -24    1    1    2    0    0 -0.92569464481E+00 -0.32502658001E+02 -0.90002801945E+02  0.12500000000E+03  0.80419002446E+02 0. -1.
</event>
<event>
 4    1  0.1653896E-001  0.1250000E+03  0.7546771E-02  0.1126479E+00
        -11   -1    0    0    0    0  0.00000000000E+00  0.00000000000E+00  0.12500000000E+03  0.12500000000E+03  0.00000000000E+00 0.  1.
         11   -1    0    0    0    0 -0.00000000000E+00 -0.00000000000E+00 -0.12500000000E+03  0.12500000000E+03  0.00000000000E+00 0. -1.
         24    1    1    2    0    0 -0.22130507958E+02 -0.36959994818E+02  0.85451643906E+02  0.12500000000E+03  0.80419002446E+02 0.  1.
        -24    1    1    2    0    0  0.22130507958E+02  0.36959994818E+02 -0.85451643906E+02  0.12500000000E+03  0.80419002446E+02 0. -1.
</event>
<event>
 4    1  0.1653896E-001  0.1250000E+03  0.7546771E-02  0.1126479E+00
        -11   -1    0    0    0    0  0.00000000000E+00  0.00000000000E+00  0.12500000000E+03  0.12500000000E+03  0.00000000000E+00 0.  1.
         11   -1    0    0    0    0 -0.00000000000E+00 -0.00000000000E+00 -0.12500000000E+03  0.12500000000E+03  0.00000000000E+00 0. -1.
         24    1    1    2    0    0 -0.74091169908E+02  0.51532973097E+02  0.31821930662E+02  0.12500000000E+03  0.80419002446E+02 0.  1.
        -24    1    1    2    0    0  0.74091169908E+02 -0.51532973097E+02 -0.31821930662E+02  0.12500000000E+03  0.80419002446E+02 0. -1.
</event>
<event>
 4    1  0.1653896E-001  0.1250000E+03  0.7546771E-02  0.1126479E+00
        -11   -1    0    0    0    0  0.00000000000E+00  0.00000000000E+00  0.12500000000E+03  0.12500000000E+03  0.00000000000E+00 0.  1.
         11   -1    0    0    0    0 -0.00000000000E+00 -0.00000000000E+00 -0.12500000000E+03  0.12500000000E+03  0.00000000000E+00 0. -1.
         24    1    1    2    0    0 -0.22539025897E+02  0.16949110818E+02  0.91446727660E+02  0.12500000000E+03  0.80419002446E+02 0.  1.
        -24    1    1    2    0    0  0.22539025897E+02 -0.16949110818E+02 -0.91446727660E+02  0.12500000000E+03  0.80419002446E+02 0. -1.
</event>
<event>
 4    1  0.1653896E-001  0.1250000E+03  0.7546771E-02  0.1126479E+00
        -11   -1    0    0    0    0  0.00000000000E+00  0.00000000000E+00  0.12500000000E+03  0.12500000000E+03  0.00000000000E+00 0.  1.
         11   -1    0    0    0    0 -0.00000000000E+00 -0.00000000000E+00 -0.12500000000E+03  0.12500000000E+03  0.00000000000E+00 0. -1.
         24    1    1    2    0    0  0.35060597471E+02 -0.31145918314E+02  0.83417446155E+02  0.12500000000E+03  0.80419002446E+02 0.  1.
        -24    1    1    2    0    0 -0.35060597471E+02  0.31145918314E+02 -0.83417446155E+02  0.12500000000E+03  0.80419002446E+02 0. -1.
</event>
<event>
 4    1  0.1653896E-001  0.1250000E+03  0.7546771E-02  0.1126479E+00
        -11   -1    0    0    0    0  0.00000000000E+00  0.00000000000E+00  0.12500000000E+03  0.12500000000E+03  0.00000000000E+00 0.  1.
         11   -1    0    0    0    0 -0.00000000000E+00 -0.00000000000E+00 -0.12500000000E+03  0.12500000000E+03  0.00000000000E+00 0. -1.
         24    1    1    2    0    0  0.92249675052E+01 -0.21940437033E+02  0.92689272534E+02  0.12500000000E+03  0.80419002446E+02 0.  1.
        -24    1    1    2    0    0 -0.92249675052E+01  0.21940437033E+02 -0.92689272534E+02  0.12500000000E+03  0.80419002446E+02 0. -1.
</event>
<event>
 4    1  0.1653896E-001  0.1250000E+03  0.7546771E-02  0.1126479E+00
        -11   -1    0    0    0    0  0.00000000000E+00  0.00000000000E+00  0.12500000000E+03  0.12500000000E+03  0.00000000000E+00 0.  1.
         11   -1    0    0    0    0 -0.00000000000E+00 -0.00000000000E+00 -0.12500000000E+03  0.12500000000E+03  0.00000000000E+00 0. -1.
         24    1    1    2    0    0  0.20557759757E+02 -0.93394635011E+02  0.35503113236E+01  0.12500000000E+03  0.80419002446E+02 0.  0.
        -24    1    1    2    0    0 -0.20557759757E+02  0.93394635011E+02 -0.35503113236E+01  0.12500000000E+03  0.80419002446E+02 0. -1.
</event>
<event>
 4    1  0.1653896E-001  0.1250000E+03  0.7546771E-02  0.1126479E+00
        -11   -1    0    0    0    0  0.00000000000E+00  0.00000000000E+00  0.12500000000E+03  0.12500000000E+03  0.00000000000E+00 0.  1.
         11   -1    0    0    0    0 -0.00000000000E+00 -0.00000000000E+00 -0.12500000000E+03  0.12500000000E+03  0.00000000000E+00 0. -1.
         24    1    1    2    0    0  0.53289119376E+02 -0.40254564281E+02  0.68539214005E+02  0.12500000000E+03  0.80419002446E+02 0. -1.
        -24    1    1    2    0    0 -0.53289119376E+02  0.40254564281E+02 -0.68539214005E+02  0.12500000000E+03  0.80419002446E+02 0.  1.
</event>
<event>
 4    1  0.1653896E-001  0.1250000E+03  0.7546771E-02  0.1126479E+00
        -11   -1    0    0    0    0  0.00000000000E+00  0.00000000000E+00  0.12500000000E+03  0.12500000000E+03  0.00000000000E+00 0.  1.
         11   -1    0    0    0    0 -0.00000000000E+00 -0.00000000000E+00 -0.12500000000E+03  0.12500000000E+03  0.00000000000E+00 0. -1.
         24    1    1    2    0    0  0.52017034060E+02 -0.21291609087E+02  0.77451143282E+02  0.12500000000E+03  0.80419002446E+02 0.  1.
        -24    1    1    2    0    0 -0.52017034060E+02  0.21291609087E+02 -0.77451143282E+02  0.12500000000E+03  0.80419002446E+02 0. -1.
</event>
<event>
 4    1  0.1653896E-001  0.1250000E+03  0.7546771E-02  0.1126479E+00
        -11   -1    0    0    0    0  0.00000000000E+00  0.00000000000E+00  0.12500000000E+03  0.12500000000E+03  0.00000000000E+00 0.  1.
         11   -1    0    0    0    0 -0.00000000000E+00 -0.00000000000E+00 -0.12500000000E+03  0.12500000000E+03  0.00000000000E+00 0. -1.
         24    1    1    2    0    0 -0.29320220680E+02 -0.45243503491E+02  0.79064113836E+02  0.12500000000E+03  0.80419002446E+02 0.  1.
        -24    1    1    2    0    0  0.29320220680E+02  0.45243503491E+02 -0.79064113836E+02  0.12500000000E+03  0.80419002446E+02 0. -1.
</event>
<event>
 4    1  0.1653896E-001  0.1250000E+03  0.7546771E-02  0.1126479E+00
        -11   -1    0    0    0    0  0.00000000000E+00  0.00000000000E+00  0.12500000000E+03  0.12500000000E+03  0.00000000000E+00 0.  1.
         11   -1    0    0    0    0 -0.00000000000E+00 -0.00000000000E+00 -0.12500000000E+03  0.12500000000E+03  0.00000000000E+00 0. -1.
         24    1    1    2    0    0 -0.37775329116E+02  0.61517879063E+01  0.87709543730E+02  0.12500000000E+03  0.80419002446E+02 0.  1.
        -24    1    1    2    0    0  0.37775329116E+02 -0.61517879063E+01 -0.87709543730E+02  0.12500000000E+03  0.80419002446E+02 0. -1.
</event>
<event>
 4    1  0.1653896E-001  0.1250000E+03  0.7546771E-02  0.1126479E+00
        -11   -1    0    0    0    0  0.00000000000E+00  0.00000000000E+00  0.12500000000E+03  0.12500000000E+03  0.00000000000E+00 0.  1.
         11   -1    0    0    0    0 -0.00000000000E+00 -0.00000000000E+00 -0.12500000000E+03  0.12500000000E+03  0.00000000000E+00 0. -1.
         24    1    1    2    0    0  0.23565361912E+02  0.88523998294E+01  0.92326013565E+02  0.12500000000E+03  0.80419002446E+02 0.  1.
        -24    1    1    2    0    0 -0.23565361912E+02 -0.88523998294E+01 -0.92326013565E+02  0.12500000000E+03  0.80419002446E+02 0. -1.
</event>
<event>
 4    1  0.1653896E-001  0.1250000E+03  0.7546771E-02  0.1126479E+00
        -11   -1    0    0    0    0  0.00000000000E+00  0.00000000000E+00  0.12500000000E+03  0.12500000000E+03  0.00000000000E+00 0.  1.
         11   -1    0    0    0    0 -0.00000000000E+00 -0.00000000000E+00 -0.12500000000E+03  0.12500000000E+03  0.00000000000E+00 0. -1.
         24    1    1    2    0    0  0.61420978589E+02  0.27830131258E+02  0.67902365416E+02  0.12500000000E+03  0.80419002446E+02 0.  1.
        -24    1    1    2    0    0 -0.61420978589E+02 -0.27830131258E+02 -0.67902365416E+02  0.12500000000E+03  0.80419002446E+02 0. -1.
</event>
<event>
 4    1  0.1653896E-001  0.1250000E+03  0.7546771E-02  0.1126479E+00
        -11   -1    0    0    0    0  0.00000000000E+00  0.00000000000E+00  0.12500000000E+03  0.12500000000E+03  0.00000000000E+00 0.  1.
         11   -1    0    0    0    0 -0.00000000000E+00 -0.00000000000E+00 -0.12500000000E+03  0.12500000000E+03  0.00000000000E+00 0. -1.
         24    1    1    2    0    0 -0.66191229572E+02 -0.72007634524E+00  0.69108513683E+02  0.12500000000E+03  0.80419002446E+02 0.  1.
        -24    1    1    2    0    0  0.66191229572E+02  0.72007634524E+00 -0.69108513683E+02  0.12500000000E+03  0.80419002446E+02 0. -1.
</event>
<event>
 4    1  0.1653896E-001  0.1250000E+03  0.7546771E-02  0.1126479E+00
        -11   -1    0    0    0    0  0.00000000000E+00  0.00000000000E+00  0.12500000000E+03  0.12500000000E+03  0.00000000000E+00 0.  1.
         11   -1    0    0    0    0 -0.00000000000E+00 -0.00000000000E+00 -0.12500000000E+03  0.12500000000E+03  0.00000000000E+00 0. -1.
         24    1    1    2    0    0  0.82531680515E+02  0.48352563986E+02  0.28870942064E+01  0.12500000000E+03  0.80419002446E+02 0. -1.
        -24    1    1    2    0    0 -0.82531680515E+02 -0.48352563986E+02 -0.28870942064E+01  0.12500000000E+03  0.80419002446E+02 0.  1.
</event>
<event>
 4    1  0.1653896E-001  0.1250000E+03  0.7546771E-02  0.1126479E+00
        -11   -1    0    0    0    0  0.00000000000E+00  0.00000000000E+00  0.12500000000E+03  0.12500000000E+03  0.00000000000E+00 0.  1.
         11   -1    0    0    0    0 -0.00000000000E+00 -0.00000000000E+00 -0.12500000000E+03  0.12500000000E+03  0.00000000000E+00 0. -1.
         24    1    1    2    0    0 -0.17157054263E+01  0.45192223608E+02  0.84335658685E+02  0.12500000000E+03  0.80419002446E+02 0. -1.
        -24    1    1    2    0    0  0.17157054263E+01 -0.45192223608E+02 -0.84335658685E+02  0.12500000000E+03  0.80419002446E+02 0. -1.
</event>
<event>
 4    1  0.1653896E-001  0.1250000E+03  0.7546771E-02  0.1126479E+00
        -11   -1    0    0    0    0  0.00000000000E+00  0.00000000000E+00  0.12500000000E+03  0.12500000000E+03  0.00000000000E+00 0.  1.
         11   -1    0    0    0    0 -0.00000000000E+00 -0.00000000000E+00 -0.12500000000E+03  0.12500000000E+03  0.00000000000E+00 0. -1.
         24    1    1    2    0    0 -0.85166316648E+02 -0.41320365582E+02 -0.14039584834E+02  0.12500000000E+03  0.80419002446E+02 0. -1.
        -24    1    1    2    0    0  0.85166316648E+02  0.41320365582E+02  0.14039584834E+02  0.12500000000E+03  0.80419002446E+02 0.  1.
</event>
<event>
 4    1  0.1653896E-001  0.1250000E+03  0.7546771E-02  0.1126479E+00
        -11   -1    0    0    0    0  0.00000000000E+00  0.00000000000E+00  0.12500000000E+03  0.12500000000E+03  0.00000000000E+00 0.  1.
         11   -1    0    0    0    0 -0.00000000000E+00 -0.00000000000E+00 -0.12500000000E+03  0.12500000000E+03  0.00000000000E+00 0. -1.
         24    1    1    2    0    0 -0.19922726871E+02 -0.26487314519E+02  0.89773554955E+02  0.12500000000E+03  0.80419002446E+02 0.  1.
        -24    1    1    2    0    0  0.19922726871E+02  0.26487314519E+02 -0.89773554955E+02  0.12500000000E+03  0.80419002446E+02 0. -1.
</event>
<event>
 4    1  0.1653896E-001  0.1250000E+03  0.7546771E-02  0.1126479E+00
        -11   -1    0    0    0    0  0.00000000000E+00  0.00000000000E+00  0.12500000000E+03  0.12500000000E+03  0.00000000000E+00 0.  1.
         11   -1    0    0    0    0 -0.00000000000E+00 -0.00000000000E+00 -0.12500000000E+03  0.12500000000E+03  0.00000000000E+00 0. -1.
         24    1    1    2    0    0  0.21160962646E+02 -0.35056816644E+02  0.86492874344E+02  0.12500000000E+03  0.80419002446E+02 0.  1.
        -24    1    1    2    0    0 -0.21160962646E+02  0.35056816644E+02 -0.86492874344E+02  0.12500000000E+03  0.80419002446E+02 0. -1.
</event>
<event>
 4    1  0.1653896E-001  0.1250000E+03  0.7546771E-02  0.1126479E+00
        -11   -1    0    0    0    0  0.00000000000E+00  0.00000000000E+00  0.12500000000E+03  0.12500000000E+03  0.00000000000E+00 0.  1.
         11   -1    0    0    0    0 -0.00000000000E+00 -0.00000000000E+00 -0.12500000000E+03  0.12500000000E+03  0.00000000000E+00 0. -1.
         24    1    1    2    0    0 -0.60373651315E+02 -0.63577175829E+02  0.38350345319E+02  0.12500000000E+03  0.80419002446E+02 0.  1.
        -24    1    1    2    0    0  0.60373651315E+02  0.63577175829E+02 -0.38350345319E+02  0.12500000000E+03  0.80419002446E+02 0. -1.
</event>
<event>
 4    1  0.1653896E-001  0.1250000E+03  0.7546771E-02  0.1126479E+00
        -11   -1    0    0    0    0  0.00000000000E+00  0.00000000000E+00  0.12500000000E+03  0.12500000000E+03  0.00000000000E+00 0.  1.
         11   -1    0    0    0    0 -0.00000000000E+00 -0.00000000000E+00 -0.12500000000E+03  0.12500000000E+03  0.00000000000E+00 0. -1.
         24    1    1    2    0    0 -0.57852238439E+02  0.54307961121E+02  0.53493438029E+02  0.12500000000E+03  0.80419002446E+02 0.  1.
        -24    1    1    2    0    0  0.57852238439E+02 -0.54307961121E+02 -0.53493438029E+02  0.12500000000E+03  0.80419002446E+02 0. -1.
</event>
<event>
 4    1  0.1653896E-001  0.1250000E+03  0.7546771E-02  0.1126479E+00
        -11   -1    0    0    0    0  0.00000000000E+00  0.00000000000E+00  0.12500000000E+03  0.12500000000E+03  0.00000000000E+00 0.  1.
         11   -1    0    0    0    0 -0.00000000000E+00 -0.00000000000E+00 -0.12500000000E+03  0.12500000000E+03  0.00000000000E+00 0. -1.
         24    1    1    2    0    0 -0.47838411604E+02 -0.51022753613E+02  0.65314233017E+02  0.12500000000E+03  0.80419002446E+02 0. -1.
        -24    1    1    2    0    0  0.47838411604E+02  0.51022753613E+02 -0.65314233017E+02  0.12500000000E+03  0.80419002446E+02 0.  0.
</event>
<event>
 4    1  0.1653896E-001  0.1250000E+03  0.7546771E-02  0.1126479E+00
        -11   -1    0    0    0    0  0.00000000000E+00  0.00000000000E+00  0.12500000000E+03  0.12500000000E+03  0.00000000000E+00 0.  1.
         11   -1    0    0    0    0 -0.00000000000E+00 -0.00000000000E+00 -0.12500000000E+03  0.12500000000E+03  0.00000000000E+00 0. -1.
         24    1    1    2    0    0  0.29960720975E+02 -0.18272558304E+02  0.89029505544E+02  0.12500000000E+03  0.80419002446E+02 0.  1.
        -24    1    1    2    0    0 -0.29960720975E+02  0.18272558304E+02 -0.89029505544E+02  0.12500000000E+03  0.80419002446E+02 0. -1.
</event>
<event>
 4    1  0.1653896E-001  0.1250000E+03  0.7546771E-02  0.1126479E+00
        -11   -1    0    0    0    0  0.00000000000E+00  0.00000000000E+00  0.12500000000E+03  0.12500000000E+03  0.00000000000E+00 0.  1.
         11   -1    0    0    0    0 -0.00000000000E+00 -0.00000000000E+00 -0.12500000000E+03  0.12500000000E+03  0.00000000000E+00 0. -1.
         24    1    1    2    0    0 -0.32934727103E+02  0.34115016459E+02  0.83121919181E+02  0.12500000000E+03  0.80419002446E+02 0.  1.
        -24    1    1    2    0    0  0.32934727103E+02 -0.34115016459E+02 -0.83121919181E+02  0.12500000000E+03  0.80419002446E+02 0. -1.
</event>
<event>
 4    1  0.1653896E-001  0.1250000E+03  0.7546771E-02  0.1126479E+00
        -11   -1    0    0    0    0  0.00000000000E+00  0.00000000000E+00  0.12500000000E+03  0.12500000000E+03  0.00000000000E+00 0.  1.
         11   -1    0    0    0    0 -0.00000000000E+00 -0.00000000000E+00 -0.12500000000E+03  0.12500000000E+03  0.00000000000E+00 0. -1.
         24    1    1    2    0    0  0.74362489520E-01  0.25147329727E+02  0.92333040259E+02  0.12500000000E+03  0.80419002446E+02 0.  1.
        -24    1    1    2    0    0 -0.74362489520E-01 -0.25147329727E+02 -0.92333040259E+02  0.12500000000E+03  0.80419002446E+02 0. -1.
</event>
<event>
 4    1  0.1653896E-001  0.1250000E+03  0.7546771E-02  0.1126479E+00
        -11   -1    0    0    0    0  0.00000000000E+00  0.00000000000E+00  0.12500000000E+03  0.12500000000E+03  0.00000000000E+00 0.  1.
         11   -1    0    0    0    0 -0.00000000000E+00 -0.00000000000E+00 -0.12500000000E+03  0.12500000000E+03  0.00000000000E+00 0. -1.
         24    1    1    2    0    0 -0.53144840800E+02  0.22970295099E+02  0.76195639541E+02  0.12500000000E+03  0.80419002446E+02 0.  1.
        -24    1    1    2    0    0  0.53144840800E+02 -0.22970295099E+02 -0.76195639541E+02  0.12500000000E+03  0.80419002446E+02 0. -1.
</event>
<event>
 4    1  0.1653896E-001  0.1250000E+03  0.7546771E-02  0.1126479E+00
        -11   -1    0    0    0    0  0.00000000000E+00  0.00000000000E+00  0.12500000000E+03  0.12500000000E+03  0.00000000000E+00 0.  1.
         11   -1    0    0    0    0 -0.00000000000E+00 -0.00000000000E+00 -0.12500000000E+03  0.12500000000E+03  0.00000000000E+00 0. -1.
         24    1    1    2    0    0 -0.23088033316E+02 -0.18973909191E+02  0.90910491877E+02  0.12500000000E+03  0.80419002446E+02 0.  1.
        -24    1    1    2    0    0  0.23088033316E+02  0.18973909191E+02 -0.90910491877E+02  0.12500000000E+03  0.80419002446E+02 0. -1.
</event>
<event>
 4    1  0.1653896E-001  0.1250000E+03  0.7546771E-02  0.1126479E+00
        -11   -1    0    0    0    0  0.00000000000E+00  0.00000000000E+00  0.12500000000E+03  0.12500000000E+03  0.00000000000E+00 0.  1.
         11   -1    0    0    0    0 -0.00000000000E+00 -0.00000000000E+00 -0.12500000000E+03  0.12500000000E+03  0.00000000000E+00 0. -1.
         24    1    1    2    0    0 -0.28509907513E+01 -0.42881072289E+02  0.85503622945E+02  0.12500000000E+03  0.80419002446E+02 0.  1.
        -24    1    1    2    0    0  0.28509907513E+01  0.42881072289E+02 -0.85503622945E+02  0.12500000000E+03  0.80419002446E+02 0. -1.
</event>
<event>
 4    1  0.1653896E-001  0.1250000E+03  0.7546771E-02  0.1126479E+00
        -11   -1    0    0    0    0  0.00000000000E+00  0.00000000000E+00  0.12500000000E+03  0.12500000000E+03  0.00000000000E+00 0.  1.
         11   -1    0    0    0    0 -0.00000000000E+00 -0.00000000000E+00 -0.12500000000E+03  0.12500000000E+03  0.00000000000E+00 0. -1.
         24    1    1    2    0    0 -0.31470224010E+01 -0.76863307369E+01  0.95335201345E+02  0.12500000000E+03  0.80419002446E+02 0.  1.
        -24    1    1    2    0    0  0.31470224010E+01  0.76863307369E+01 -0.95335201345E+02  0.12500000000E+03  0.80419002446E+02 0.  0.
</event>
<event>
 4    1  0.1653896E-001  0.1250000E+03  0.7546771E-02  0.1126479E+00
        -11   -1    0    0    0    0  0.00000000000E+00  0.00000000000E+00  0.12500000000E+03  0.12500000000E+03  0.00000000000E+00 0.  1.
         11   -1    0    0    0    0 -0.00000000000E+00 -0.00000000000E+00 -0.12500000000E+03  0.12500000000E+03  0.00000000000E+00 0. -1.
         24    1    1    2    0    0 -0.28224747915E+02 -0.31567552599E+02  0.85817464852E+02  0.12500000000E+03  0.80419002446E+02 0.  1.
        -24    1    1    2    0    0  0.28224747915E+02  0.31567552599E+02 -0.85817464852E+02  0.12500000000E+03  0.80419002446E+02 0. -1.
</event>
<event>
 4    1  0.1653896E-001  0.1250000E+03  0.7546771E-02  0.1126479E+00
        -11   -1    0    0    0    0  0.00000000000E+00  0.00000000000E+00  0.12500000000E+03  0.12500000000E+03  0.00000000000E+00 0.  1.
         11   -1    0    0    0    0 -0.00000000000E+00 -0.00000000000E+00 -0.12500000000E+03  0.12500000000E+03  0.00000000000E+00 0. -1.
         24    1    1    2    0    0  0.30094767916E+02 -0.21447740855E+02  0.88272778374E+02  0.12500000000E+03  0.80419002446E+02 0.  1.
        -24    1    1    2    0    0 -0.30094767916E+02  0.21447740855E+02 -0.88272778374E+02  0.12500000000E+03  0.80419002446E+02 0. -1.
</event>
<event>
 4    1  0.1653896E-001  0.1250000E+03  0.7546771E-02  0.1126479E+00
        -11   -1    0    0    0    0  0.00000000000E+00  0.00000000000E+00  0.12500000000E+03  0.12500000000E+03  0.00000000000E+00 0.  1.
         11   -1    0    0    0    0 -0.00000000000E+00 -0.00000000000E+00 -0.12500000000E+03  0.12500000000E+03  0.00000000000E+00 0. -1.
         24    1    1    2    0    0  0.79176658159E+01  0.18344352805E+01  0.95350560884E+02  0.12500000000E+03  0.80419002446E+02 0.  1.
        -24    1    1    2    0    0 -0.79176658159E+01 -0.18344352805E+01 -0.95350560884E+02  0.12500000000E+03  0.80419002446E+02 0. -1.
</event>
<event>
 4    1  0.1653896E-001  0.1250000E+03  0.7546771E-02  0.1126479E+00
        -11   -1    0    0    0    0  0.00000000000E+00  0.00000000000E+00  0.12500000000E+03  0.12500000000E+03  0.00000000000E+00 0.  1.
         11   -1    0    0    0    0 -0.00000000000E+00 -0.00000000000E+00 -0.12500000000E+03  0.12500000000E+03  0.00000000000E+00 0. -1.
         24    1    1    2    0    0 -0.52220078368E+01 -0.49586334922E+02  0.81680536658E+02  0.12500000000E+03  0.80419002446E+02 0.  1.
        -24    1    1    2    0    0  0.52220078368E+01  0.49586334922E+02 -0.81680536658E+02  0.12500000000E+03  0.80419002446E+02 0. -1.
</event>
<event>
 4    1  0.1653896E-001  0.1250000E+03  0.7546771E-02  0.1126479E+00
        -11   -1    0    0    0    0  0.00000000000E+00  0.00000000000E+00  0.12500000000E+03  0.12500000000E+03  0.00000000000E+00 0.  1.
         11   -1    0    0    0    0 -0.00000000000E+00 -0.00000000000E+00 -0.12500000000E+03  0.12500000000E+03  0.00000000000E+00 0. -1.
         24    1    1    2    0    0 -0.18635585637E+02  0.80346556937E+02  0.48527618754E+02  0.12500000000E+03  0.80419002446E+02 0.  1.
        -24    1    1    2    0    0  0.18635585637E+02 -0.80346556937E+02 -0.48527618754E+02  0.12500000000E+03  0.80419002446E+02 0. -1.
</event>
<event>
 4    1  0.1653896E-001  0.1250000E+03  0.7546771E-02  0.1126479E+00
        -11   -1    0    0    0    0  0.00000000000E+00  0.00000000000E+00  0.12500000000E+03  0.12500000000E+03  0.00000000000E+00 0.  1.
         11   -1    0    0    0    0 -0.00000000000E+00 -0.00000000000E+00 -0.12500000000E+03  0.12500000000E+03  0.00000000000E+00 0. -1.
         24    1    1    2    0    0  0.57858217894E+02 -0.30549522411E+01  0.76163494763E+02  0.12500000000E+03  0.80419002446E+02 0.  1.
        -24    1    1    2    0    0 -0.57858217894E+02  0.30549522411E+01 -0.76163494763E+02  0.12500000000E+03  0.80419002446E+02 0. -1.
</event>
<event>
 4    1  0.1653896E-001  0.1250000E+03  0.7546771E-02  0.1126479E+00
        -11   -1    0    0    0    0  0.00000000000E+00  0.00000000000E+00  0.12500000000E+03  0.12500000000E+03  0.00000000000E+00 0.  1.
         11   -1    0    0    0    0 -0.00000000000E+00 -0.00000000000E+00 -0.12500000000E+03  0.12500000000E+03  0.00000000000E+00 0. -1.
         24    1    1    2    0    0  0.34544421955E+02 -0.34073509584E+01  0.89178791856E+02  0.12500000000E+03  0.80419002446E+02 0.  1.
        -24    1    1    2    0    0 -0.34544421955E+02  0.34073509584E+01 -0.89178791856E+02  0.12500000000E+03  0.80419002446E+02 0. -1.
</event>
<event>
 4    1  0.1653896E-001  0.1250000E+03  0.7546771E-02  0.1126479E+00
        -11   -1    0    0    0    0  0.00000000000E+00  0.00000000000E+00  0.12500000000E+03  0.12500000000E+03  0.00000000000E+00 0.  1.
         11   -1    0    0    0    0 -0.00000000000E+00 -0.00000000000E+00 -0.12500000000E+03  0.12500000000E+03  0.00000000000E+00 0. -1.
         24    1    1    2    0    0  0.15816598012E+02 -0.78307435130E+02  0.52683630059E+02  0.12500000000E+03  0.80419002446E+02 0.  1.
        -24    1    1    2    0    0 -0.15816598012E+02  0.78307435130E+02 -0.52683630059E+02  0.12500000000E+03  0.80419002446E+02 0. -1.
</event>
<event>
 4    1  0.1653896E-001  0.1250000E+03  0.7546771E-02  0.1126479E+00
        -11   -1    0    0    0    0  0.00000000000E+00  0.00000000000E+00  0.12500000000E+03  0.12500000000E+03  0.00000000000E+00 0.  1.
         11   -1    0    0    0    0 -0.00000000000E+00 -0.00000000000E+00 -0.12500000000E+03  0.12500000000E+03  0.00000000000E+00 0. -1.
         24    1    1    2    0    0 -0.13199664897E+01  0.11856764988E+02  0.94949770185E+02  0.12500000000E+03  0.80419002446E+02 0.  1.
        -24    1    1    2    0    0  0.13199664897E+01 -0.11856764988E+02 -0.94949770185E+02  0.12500000000E+03  0.80419002446E+02 0.  0.
</event>
<event>
 4    1  0.1653896E-001  0.1250000E+03  0.7546771E-02  0.1126479E+00
        -11   -1    0    0    0    0  0.00000000000E+00  0.00000000000E+00  0.12500000000E+03  0.12500000000E+03  0.00000000000E+00 0.  1.
         11   -1    0    0    0    0 -0.00000000000E+00 -0.00000000000E+00 -0.12500000000E+03  0.12500000000E+03  0.00000000000E+00 0. -1.
         24    1    1    2    0    0  0.65470643351E+02  0.26623012692E+02  0.64518168759E+02  0.12500000000E+03  0.80419002446E+02 0.  1.
        -24    1    1    2    0    0 -0.65470643351E+02 -0.26623012692E+02 -0.64518168759E+02  0.12500000000E+03  0.80419002446E+02 0. -1.
</event>
<event>
 4    1  0.1653896E-001  0.1250000E+03  0.7546771E-02  0.1126479E+00
        -11   -1    0    0    0    0  0.00000000000E+00  0.00000000000E+00  0.12500000000E+03  0.12500000000E+03  0.00000000000E+00 0.  1.
         11   -1    0    0    0    0 -0.00000000000E+00 -0.00000000000E+00 -0.12500000000E+03  0.12500000000E+03  0.00000000000E+00 0. -1.
         24    1    1    2    0    0 -0.75287568776E+01  0.77807645965E+02 -0.55200290714E+02  0.12500000000E+03  0.80419002446E+02 0.  0.
        -24    1    1    2    0    0  0.75287568776E+01 -0.77807645965E+02  0.55200290714E+02  0.12500000000E+03  0.80419002446E+02 0.  0.
</event>
<event>
 4    1  0.1653896E-001  0.1250000E+03  0.7546771E-02  0.1126479E+00
        -11   -1    0    0    0    0  0.00000000000E+00  0.00000000000E+00  0.12500000000E+03  0.12500000000E+03  0.00000000000E+00 0.  1.
         11   -1    0    0    0    0 -0.00000000000E+00 -0.00000000000E+00 -0.12500000000E+03  0.12500000000E+03  0.00000000000E+00 0. -1.
         24    1    1    2    0    0 -0.24940259170E+00  0.76877699283E+02  0.56987202045E+02  0.12500000000E+03  0.80419002446E+02 0.  1.
        -24    1    1    2    0    0  0.24940259170E+00 -0.76877699283E+02 -0.56987202045E+02  0.12500000000E+03  0.80419002446E+02 0. -1.
</event>
<event>
 4    1  0.1653896E-001  0.1250000E+03  0.7546771E-02  0.1126479E+00
        -11   -1    0    0    0    0  0.00000000000E+00  0.00000000000E+00  0.12500000000E+03  0.12500000000E+03  0.00000000000E+00 0.  1.
         11   -1    0    0    0    0 -0.00000000000E+00 -0.00000000000E+00 -0.12500000000E+03  0.12500000000E+03  0.00000000000E+00 0. -1.
         24    1    1    2    0    0  0.95727348263E+01 -0.10161666219E+02  0.94672526813E+02  0.12500000000E+03  0.80419002446E+02 0.  1.
        -24    1    1    2    0    0 -0.95727348263E+01  0.10161666219E+02 -0.94672526813E+02  0.12500000000E+03  0.80419002446E+02 0.  0.
</event>
<event>
 4    1  0.1653896E-001  0.1250000E+03  0.7546771E-02  0.1126479E+00
        -11   -1    0    0    0    0  0.00000000000E+00  0.00000000000E+00  0.12500000000E+03  0.12500000000E+03  0.00000000000E+00 0.  1.
         11   -1    0    0    0    0 -0.00000000000E+00 -0.00000000000E+00 -0.12500000000E+03  0.12500000000E+03  0.00000000000E+00 0. -1.
         24    1    1    2    0    0 -0.51989472279E+02 -0.58121760346E+02  0.55468367491E+02  0.12500000000E+03  0.80419002446E+02 0.  1.
        -24    1    1    2    0    0  0.51989472279E+02  0.58121760346E+02 -0.55468367491E+02  0.12500000000E+03  0.80419002446E+02 0. -1.
</event>
<event>
 4    1  0.1653896E-001  0.1250000E+03  0.7546771E-02  0.1126479E+00
        -11   -1    0    0    0    0  0.00000000000E+00  0.00000000000E+00  0.12500000000E+03  0.12500000000E+03  0.00000000000E+00 0.  1.
         11   -1    0    0    0    0 -0.00000000000E+00 -0.00000000000E+00 -0.12500000000E+03  0.12500000000E+03  0.00000000000E+00 0. -1.
         24    1    1    2    0    0 -0.80673700554E+02  0.43304567723E+02 -0.27825393059E+02  0.12500000000E+03  0.80419002446E+02 0. -1.
        -24    1    1    2    0    0  0.80673700554E+02 -0.43304567723E+02  0.27825393059E+02  0.12500000000E+03  0.80419002446E+02 0.  1.
</event>
<event>
 4    1  0.1653896E-001  0.1250000E+03  0.7546771E-02  0.1126479E+00
        -11   -1    0    0    0    0  0.00000000000E+00  0.00000000000E+00  0.12500000000E+03  0.12500000000E+03  0.00000000000E+00 0.  1.
         11   -1    0    0    0    0 -0.00000000000E+00 -0.00000000000E+00 -0.12500000000E+03  0.12500000000E+03  0.00000000000E+00 0. -1.
         24    1    1    2    0    0 -0.29273473797E+02  0.21932748089E+02  0.88429646266E+02  0.12500000000E+03  0.80419002446E+02 0.  1.
        -24    1    1    2    0    0  0.29273473797E+02 -0.21932748089E+02 -0.88429646266E+02  0.12500000000E+03  0.80419002446E+02 0. -1.
</event>
<event>
 4    1  0.1653896E-001  0.1250000E+03  0.7546771E-02  0.1126479E+00
        -11   -1    0    0    0    0  0.00000000000E+00  0.00000000000E+00  0.12500000000E+03  0.12500000000E+03  0.00000000000E+00 0.  1.
         11   -1    0    0    0    0 -0.00000000000E+00 -0.00000000000E+00 -0.12500000000E+03  0.12500000000E+03  0.00000000000E+00 0. -1.
         24    1    1    2    0    0 -0.36871017814E+02  0.88013431077E+01  0.87868358642E+02  0.12500000000E+03  0.80419002446E+02 0.  1.
        -24    1    1    2    0    0  0.36871017814E+02 -0.88013431077E+01 -0.87868358642E+02  0.12500000000E+03  0.80419002446E+02 0. -1.
</event>
<event>
 4    1  0.1653896E-001  0.1250000E+03  0.7546771E-02  0.1126479E+00
        -11   -1    0    0    0    0  0.00000000000E+00  0.00000000000E+00  0.12500000000E+03  0.12500000000E+03  0.00000000000E+00 0.  1.
         11   -1    0    0    0    0 -0.00000000000E+00 -0.00000000000E+00 -0.12500000000E+03  0.12500000000E+03  0.00000000000E+00 0. -1.
         24    1    1    2    0    0  0.23936346313E+01  0.89789257840E+02  0.33014295925E+02  0.12500000000E+03  0.80419002446E+02 0.  1.
        -24    1    1    2    0    0 -0.23936346313E+01 -0.89789257840E+02 -0.33014295925E+02  0.12500000000E+03  0.80419002446E+02 0.  0.
</event>
<event>
 4    1  0.1653896E-001  0.1250000E+03  0.7546771E-02  0.1126479E+00
        -11   -1    0    0    0    0  0.00000000000E+00  0.00000000000E+00  0.12500000000E+03  0.12500000000E+03  0.00000000000E+00 0.  1.
         11   -1    0    0    0    0 -0.00000000000E+00 -0.00000000000E+00 -0.12500000000E+03  0.12500000000E+03  0.00000000000E+00 0. -1.
         24    1    1    2    0    0 -0.11931099190E+02  0.24308843770E+01  0.94918510939E+02  0.12500000000E+03  0.80419002446E+02 0.  1.
        -24    1    1    2    0    0  0.11931099190E+02 -0.24308843770E+01 -0.94918510939E+02  0.12500000000E+03  0.80419002446E+02 0. -1.
</event>
<event>
 4    1  0.1653896E-001  0.1250000E+03  0.7546771E-02  0.1126479E+00
        -11   -1    0    0    0    0  0.00000000000E+00  0.00000000000E+00  0.12500000000E+03  0.12500000000E+03  0.00000000000E+00 0.  1.
         11   -1    0    0    0    0 -0.00000000000E+00 -0.00000000000E+00 -0.12500000000E+03  0.12500000000E+03  0.00000000000E+00 0. -1.
         24    1    1    2    0    0  0.52575279647E+02  0.66894400405E+02  0.43803689459E+02  0.12500000000E+03  0.80419002446E+02 0. -1.
        -24    1    1    2    0    0 -0.52575279647E+02 -0.66894400405E+02 -0.43803689459E+02  0.12500000000E+03  0.80419002446E+02 0.  1.
</event>
<event>
 4    1  0.1653896E-001  0.1250000E+03  0.7546771E-02  0.1126479E+00
        -11   -1    0    0    0    0  0.00000000000E+00  0.00000000000E+00  0.12500000000E+03  0.12500000000E+03  0.00000000000E+00 0.  1.
         11   -1    0    0    0    0 -0.00000000000E+00 -0.00000000000E+00 -0.12500000000E+03  0.12500000000E+03  0.00000000000E+00 0. -1.
         24    1    1    2    0    0 -0.11801606814E+01 -0.23590926269E+02  0.92735427233E+02  0.12500000000E+03  0.80419002446E+02 0.  1.
        -24    1    1    2    0    0  0.11801606814E+01  0.23590926269E+02 -0.92735427233E+02  0.12500000000E+03  0.80419002446E+02 0. -1.
</event>
<event>
 4    1  0.1653896E-001  0.1250000E+03  0.7546771E-02  0.1126479E+00
        -11   -1    0    0    0    0  0.00000000000E+00  0.00000000000E+00  0.12500000000E+03  0.12500000000E+03  0.00000000000E+00 0.  1.
         11   -1    0    0    0    0 -0.00000000000E+00 -0.00000000000E+00 -0.12500000000E+03  0.12500000000E+03  0.00000000000E+00 0. -1.
         24    1    1    2    0    0  0.37871131185E+02 -0.24884892489E+01  0.87848556560E+02  0.12500000000E+03  0.80419002446E+02 0.  1.
        -24    1    1    2    0    0 -0.37871131185E+02  0.24884892489E+01 -0.87848556560E+02  0.12500000000E+03  0.80419002446E+02 0.  1.
</event>
<event>
 4    1  0.1653896E-001  0.1250000E+03  0.7546771E-02  0.1126479E+00
        -11   -1    0    0    0    0  0.00000000000E+00  0.00000000000E+00  0.12500000000E+03  0.12500000000E+03  0.00000000000E+00 0.  1.
         11   -1    0    0    0    0 -0.00000000000E+00 -0.00000000000E+00 -0.12500000000E+03  0.12500000000E+03  0.00000000000E+00 0. -1.
         24    1    1    2    0    0 -0.32873579662E+02 -0.65659392192E+02  0.61367385660E+02  0.12500000000E+03  0.80419002446E+02 0.  0.
        -24    1    1    2    0    0  0.32873579662E+02  0.65659392192E+02 -0.61367385660E+02  0.12500000000E+03  0.80419002446E+02 0.  0.
</event>
<event>
 4    1  0.1653896E-001  0.1250000E+03  0.7546771E-02  0.1126479E+00
        -11   -1    0    0    0    0  0.00000000000E+00  0.00000000000E+00  0.12500000000E+03  0.12500000000E+03  0.00000000000E+00 0.  1.
         11   -1    0    0    0    0 -0.00000000000E+00 -0.00000000000E+00 -0.12500000000E+03  0.12500000000E+03  0.00000000000E+00 0. -1.
         24    1    1    2    0    0 -0.10520194520E+02 -0.13396648547E+02  0.94168144086E+02  0.12500000000E+03  0.80419002446E+02 0.  0.
        -24    1    1    2    0    0  0.10520194520E+02  0.13396648547E+02 -0.94168144086E+02  0.12500000000E+03  0.80419002446E+02 0. -1.
</event>
<event>
 4    1  0.1653896E-001  0.1250000E+03  0.7546771E-02  0.1126479E+00
        -11   -1    0    0    0    0  0.00000000000E+00  0.00000000000E+00  0.12500000000E+03  0.12500000000E+03  0.00000000000E+00 0.  1.
         11   -1    0    0    0    0 -0.00000000000E+00 -0.00000000000E+00 -0.12500000000E+03  0.12500000000E+03  0.00000000000E+00 0. -1.
         24    1    1    2    0    0  0.34915471258E+02 -0.61129903193E+02  0.64821515318E+02  0.12500000000E+03  0.80419002446E+02 0.  1.
        -24    1    1    2    0    0 -0.34915471258E+02  0.61129903193E+02 -0.64821515318E+02  0.12500000000E+03  0.80419002446E+02 0. -1.
</event>
<event>
 4    1  0.1653896E-001  0.1250000E+03  0.7546771E-02  0.1126479E+00
        -11   -1    0    0    0    0  0.00000000000E+00  0.00000000000E+00  0.12500000000E+03  0.12500000000E+03  0.00000000000E+00 0.  1.
         11   -1    0    0    0    0 -0.00000000000E+00 -0.00000000000E+00 -0.12500000000E+03  0.12500000000E+03  0.00000000000E+00 0. -1.
         24    1    1    2    0    0  0.58413816255E+01 -0.33800153404E+02  0.89337628893E+02  0.12500000000E+03  0.80419002446E+02 0.  0.
        -24    1    1    2    0    0 -0.58413816255E+01  0.33800153404E+02 -0.89337628893E+02  0.12500000000E+03  0.80419002446E+02 0.  0.
</event>
<event>
 4    1  0.1653896E-001  0.1250000E+03  0.7546771E-02  0.1126479E+00
        -11   -1    0    0    0    0  0.00000000000E+00  0.00000000000E+00  0.12500000000E+03  0.12500000000E+03  0.00000000000E+00 0.  1.
         11   -1    0    0    0    0 -0.00000000000E+00 -0.00000000000E+00 -0.12500000000E+03  0.12500000000E+03  0.00000000000E+00 0. -1.
         24    1    1    2    0    0  0.19513293319E+02 -0.12713130763E+02  0.92819134534E+02  0.12500000000E+03  0.80419002446E+02 0.  1.
        -24    1    1    2    0    0 -0.19513293319E+02  0.12713130763E+02 -0.92819134534E+02  0.12500000000E+03  0.80419002446E+02 0. -1.
</event>
<event>
 4    1  0.1653896E-001  0.1250000E+03  0.7546771E-02  0.1126479E+00
        -11   -1    0    0    0    0  0.00000000000E+00  0.00000000000E+00  0.12500000000E+03  0.12500000000E+03  0.00000000000E+00 0.  1.
         11   -1    0    0    0    0 -0.00000000000E+00 -0.00000000000E+00 -0.12500000000E+03  0.12500000000E+03  0.00000000000E+00 0. -1.
         24    1    1    2    0    0 -0.64378855421E+02 -0.66056171332E+02 -0.25489787156E+02  0.12500000000E+03  0.80419002446E+02 0.  0.
        -24    1    1    2    0    0  0.64378855421E+02  0.66056171332E+02  0.25489787156E+02  0.12500000000E+03  0.80419002446E+02 0.  0.
</event>
<event>
 4    1  0.1653896E-001  0.1250000E+03  0.7546771E-02  0.1126479E+00
        -11   -1    0    0    0    0  0.00000000000E+00  0.00000000000E+00  0.12500000000E+03  0.12500000000E+03  0.00000000000E+00 0.  1.
         11   -1    0    0    0    0 -0.00000000000E+00 -0.00000000000E+00 -0.12500000000E+03  0.12500000000E+03  0.00000000000E+00 0. -1.
         24    1    1    2    0    0  0.94224685508E+01  0.11559255197E+02  0.94527164092E+02  0.12500000000E+03  0.80419002446E+02 0.  1.
        -24    1    1    2    0    0 -0.94224685508E+01 -0.11559255197E+02 -0.94527164092E+02  0.12500000000E+03  0.80419002446E+02 0. -1.
</event>
<event>
 4    1  0.1653896E-001  0.1250000E+03  0.7546771E-02  0.1126479E+00
        -11   -1    0    0    0    0  0.00000000000E+00  0.00000000000E+00  0.12500000000E+03  0.12500000000E+03  0.00000000000E+00 0.  1.
         11   -1    0    0    0    0 -0.00000000000E+00 -0.00000000000E+00 -0.12500000000E+03  0.12500000000E+03  0.00000000000E+00 0. -1.
         24    1    1    2    0    0  0.12319873098E+02  0.16095063337E+02  0.93525150140E+02  0.12500000000E+03  0.80419002446E+02 0.  1.
        -24    1    1    2    0    0 -0.12319873098E+02 -0.16095063337E+02 -0.93525150140E+02  0.12500000000E+03  0.80419002446E+02 0. -1.
</event>
<event>
 4    1  0.1653896E-001  0.1250000E+03  0.7546771E-02  0.1126479E+00
        -11   -1    0    0    0    0  0.00000000000E+00  0.00000000000E+00  0.12500000000E+03  0.12500000000E+03  0.00000000000E+00 0.  1.
         11   -1    0    0    0    0 -0.00000000000E+00 -0.00000000000E+00 -0.12500000000E+03  0.12500000000E+03  0.00000000000E+00 0. -1.
         24    1    1    2    0    0  0.96579375500E+01 -0.29791155081E+02  0.90426740331E+02  0.12500000000E+03  0.80419002446E+02 0.  1.
        -24    1    1    2    0    0 -0.96579375500E+01  0.29791155081E+02 -0.90426740331E+02  0.12500000000E+03  0.80419002446E+02 0. -1.
</event>
<event>
 4    1  0.1653896E-001  0.1250000E+03  0.7546771E-02  0.1126479E+00
        -11   -1    0    0    0    0  0.00000000000E+00  0.00000000000E+00  0.12500000000E+03  0.12500000000E+03  0.00000000000E+00 0.  1.
         11   -1    0    0    0    0 -0.00000000000E+00 -0.00000000000E+00 -0.12500000000E+03  0.12500000000E+03  0.00000000000E+00 0. -1.
         24    1    1    2    0    0 -0.11646902029E+02  0.22976755206E+02  0.92163997520E+02  0.12500000000E+03  0.80419002446E+02 0.  1.
        -24    1    1    2    0    0  0.11646902029E+02 -0.22976755206E+02 -0.92163997520E+02  0.12500000000E+03  0.80419002446E+02 0. -1.
</event>
<event>
 4    1  0.1653896E-001  0.1250000E+03  0.7546771E-02  0.1126479E+00
        -11   -1    0    0    0    0  0.00000000000E+00  0.00000000000E+00  0.12500000000E+03  0.12500000000E+03  0.00000000000E+00 0.  1.
         11   -1    0    0    0    0 -0.00000000000E+00 -0.00000000000E+00 -0.12500000000E+03  0.12500000000E+03  0.00000000000E+00 0. -1.
         24    1    1    2    0    0 -0.91977972485E+01  0.22387579067E+02  0.92584992709E+02  0.12500000000E+03  0.80419002446E+02 0.  1.
        -24    1    1    2    0    0  0.91977972485E+01 -0.22387579067E+02 -0.92584992709E+02  0.12500000000E+03  0.80419002446E+02 0. -1.
</event>
<event>
 4    1  0.1653896E-001  0.1250000E+03  0.7546771E-02  0.1126479E+00
        -11   -1    0    0    0    0  0.00000000000E+00  0.00000000000E+00  0.12500000000E+03  0.12500000000E+03  0.00000000000E+00 0.  1.
         11   -1    0    0    0    0 -0.00000000000E+00 -0.00000000000E+00 -0.12500000000E+03  0.12500000000E+03  0.00000000000E+00 0. -1.
         24    1    1    2    0    0 -0.27816774648E+02 -0.36657072732E+02  0.83906317477E+02  0.12500000000E+03  0.80419002446E+02 0.  1.
        -24    1    1    2    0    0  0.27816774648E+02  0.36657072732E+02 -0.83906317477E+02  0.12500000000E+03  0.80419002446E+02 0. -1.
</event>
<event>
 4    1  0.1653896E-001  0.1250000E+03  0.7546771E-02  0.1126479E+00
        -11   -1    0    0    0    0  0.00000000000E+00  0.00000000000E+00  0.12500000000E+03  0.12500000000E+03  0.00000000000E+00 0.  1.
         11   -1    0    0    0    0 -0.00000000000E+00 -0.00000000000E+00 -0.12500000000E+03  0.12500000000E+03  0.00000000000E+00 0. -1.
         24    1    1    2    0    0  0.45935610078E+02  0.14074802735E+02  0.82762332618E+02  0.12500000000E+03  0.80419002446E+02 0. -1.
        -24    1    1    2    0    0 -0.45935610078E+02 -0.14074802735E+02 -0.82762332618E+02  0.12500000000E+03  0.80419002446E+02 0.  0.
</event>
<event>
 4    1  0.1653896E-001  0.1250000E+03  0.7546771E-02  0.1126479E+00
        -11   -1    0    0    0    0  0.00000000000E+00  0.00000000000E+00  0.12500000000E+03  0.12500000000E+03  0.00000000000E+00 0.  1.
         11   -1    0    0    0    0 -0.00000000000E+00 -0.00000000000E+00 -0.12500000000E+03  0.12500000000E+03  0.00000000000E+00 0. -1.
         24    1    1    2    0    0  0.15592722097E+02  0.22757240316E+02  0.91633831506E+02  0.12500000000E+03  0.80419002446E+02 0.  1.
        -24    1    1    2    0    0 -0.15592722097E+02 -0.22757240316E+02 -0.91633831506E+02  0.12500000000E+03  0.80419002446E+02 0.  0.
</event>
<event>
 4    1  0.1653896E-001  0.1250000E+03  0.7546771E-02  0.1126479E+00
        -11   -1    0    0    0    0  0.00000000000E+00  0.00000000000E+00  0.12500000000E+03  0.12500000000E+03  0.00000000000E+00 0.  1.
         11   -1    0    0    0    0 -0.00000000000E+00 -0.00000000000E+00 -0.12500000000E+03  0.12500000000E+03  0.00000000000E+00 0. -1.
         24    1    1    2    0    0  0.31565483907E+02  0.31549327194E+01  0.90285384592E+02  0.12500000000E+03  0.80419002446E+02 0.  1.
        -24    1    1    2    0    0 -0.31565483907E+02 -0.31549327194E+01 -0.90285384592E+02  0.12500000000E+03  0.80419002446E+02 0. -1.
</event>
<event>
 4    1  0.1653896E-001  0.1250000E+03  0.7546771E-02  0.1126479E+00
        -11   -1    0    0    0    0  0.00000000000E+00  0.00000000000E+00  0.12500000000E+03  0.12500000000E+03  0.00000000000E+00 0.  1.
         11   -1    0    0    0    0 -0.00000000000E+00 -0.00000000000E+00 -0.12500000000E+03  0.12500000000E+03  0.00000000000E+00 0. -1.
         24    1    1    2    0    0  0.61734707137E+02 -0.16286147308E+02  0.71283738582E+02  0.12500000000E+03  0.80419002446E+02 0.  1.
        -24    1    1    2    0    0 -0.61734707137E+02  0.16286147308E+02 -0.71283738582E+02  0.12500000000E+03  0.80419002446E+02 0. -1.
</event>
<event>
 4    1  0.1653896E-001  0.1250000E+03  0.7546771E-02  0.1126479E+00
        -11   -1    0    0    0    0  0.00000000000E+00  0.00000000000E+00  0.12500000000E+03  0.12500000000E+03  0.00000000000E+00 0.  1.
         11   -1    0    0    0    0 -0.00000000000E+00 -0.00000000000E+00 -0.12500000000E+03  0.12500000000E+03  0.00000000000E+00 0. -1.
         24    1    1    2    0    0 -0.19899021271E+02  0.40730956717E+02  0.84278123870E+02  0.12500000000E+03  0.80419002446E+02 0.  1.
        -24    1    1    2    0    0  0.19899021271E+02 -0.40730956717E+02 -0.84278123870E+02  0.12500000000E+03  0.80419002446E+02 0. -1.
</event>
<event>
 4    1  0.1653896E-001  0.1250000E+03  0.7546771E-02  0.1126479E+00
        -11   -1    0    0    0    0  0.00000000000E+00  0.00000000000E+00  0.12500000000E+03  0.12500000000E+03  0.00000000000E+00 0.  1.
         11   -1    0    0    0    0 -0.00000000000E+00 -0.00000000000E+00 -0.12500000000E+03  0.12500000000E+03  0.00000000000E+00 0. -1.
         24    1    1    2    0    0 -0.25920117586E+02 -0.48495752479E+01  0.91991375519E+02  0.12500000000E+03  0.80419002446E+02 0.  1.
        -24    1    1    2    0    0  0.25920117586E+02  0.48495752479E+01 -0.91991375519E+02  0.12500000000E+03  0.80419002446E+02 0. -1.
</event>
<event>
 4    1  0.1653896E-001  0.1250000E+03  0.7546771E-02  0.1126479E+00
        -11   -1    0    0    0    0  0.00000000000E+00  0.00000000000E+00  0.12500000000E+03  0.12500000000E+03  0.00000000000E+00 0.  1.
         11   -1    0    0    0    0 -0.00000000000E+00 -0.00000000000E+00 -0.12500000000E+03  0.12500000000E+03  0.00000000000E+00 0. -1.
         24    1    1    2    0    0 -0.42028329197E+02 -0.79241686202E+02  0.33349044340E+02  0.12500000000E+03  0.80419002446E+02 0.  1.
        -24    1    1    2    0    0  0.42028329197E+02  0.79241686202E+02 -0.33349044340E+02  0.12500000000E+03  0.80419002446E+02 0. -1.
</event>
<event>
 4    1  0.1653896E-001  0.1250000E+03  0.7546771E-02  0.1126479E+00
        -11   -1    0    0    0    0  0.00000000000E+00  0.00000000000E+00  0.12500000000E+03  0.12500000000E+03  0.00000000000E+00 0.  1.
         11   -1    0    0    0    0 -0.00000000000E+00 -0.00000000000E+00 -0.12500000000E+03  0.12500000000E+03  0.00000000000E+00 0. -1.
         24    1    1    2    0    0 -0.11591252736E+02 -0.15539069974E+01  0.94979009674E+02  0.12500000000E+03  0.80419002446E+02 0.  0.
        -24    1    1    2    0    0  0.11591252736E+02  0.15539069974E+01 -0.94979009674E+02  0.12500000000E+03  0.80419002446E+02 0. -1.
</event>
<event>
 4    1  0.1653896E-001  0.1250000E+03  0.7546771E-02  0.1126479E+00
        -11   -1    0    0    0    0  0.00000000000E+00  0.00000000000E+00  0.12500000000E+03  0.12500000000E+03  0.00000000000E+00 0.  1.
         11   -1    0    0    0    0 -0.00000000000E+00 -0.00000000000E+00 -0.12500000000E+03  0.12500000000E+03  0.00000000000E+00 0. -1.
         24    1    1    2    0    0  0.65122198914E+02 -0.24279013332E+02  0.65783073551E+02  0.12500000000E+03  0.80419002446E+02 0.  1.
        -24    1    1    2    0    0 -0.65122198914E+02  0.24279013332E+02 -0.65783073551E+02  0.12500000000E+03  0.80419002446E+02 0. -1.
</event>
<event>
 4    1  0.1653896E-001  0.1250000E+03  0.7546771E-02  0.1126479E+00
        -11   -1    0    0    0    0  0.00000000000E+00  0.00000000000E+00  0.12500000000E+03  0.12500000000E+03  0.00000000000E+00 0.  1.
         11   -1    0    0    0    0 -0.00000000000E+00 -0.00000000000E+00 -0.12500000000E+03  0.12500000000E+03  0.00000000000E+00 0. -1.
         24    1    1    2    0    0 -0.62529864932E+01  0.32411881318E+02  0.89822904401E+02  0.12500000000E+03  0.80419002446E+02 0.  1.
        -24    1    1    2    0    0  0.62529864932E+01 -0.32411881318E+02 -0.89822904401E+02  0.12500000000E+03  0.80419002446E+02 0. -1.
</event>
<event>
 4    1  0.1653896E-001  0.1250000E+03  0.7546771E-02  0.1126479E+00
        -11   -1    0    0    0    0  0.00000000000E+00  0.00000000000E+00  0.12500000000E+03  0.12500000000E+03  0.00000000000E+00 0.  1.
         11   -1    0    0    0    0 -0.00000000000E+00 -0.00000000000E+00 -0.12500000000E+03  0.12500000000E+03  0.00000000000E+00 0. -1.
         24    1    1    2    0    0 -0.53036734010E+02  0.76144927046E+01  0.79290027065E+02  0.12500000000E+03  0.80419002446E+02 0. -1.
        -24    1    1    2    0    0  0.53036734010E+02 -0.76144927046E+01 -0.79290027065E+02  0.12500000000E+03  0.80419002446E+02 0. -1.
</event>
<event>
 4    1  0.1653896E-001  0.1250000E+03  0.7546771E-02  0.1126479E+00
        -11   -1    0    0    0    0  0.00000000000E+00  0.00000000000E+00  0.12500000000E+03  0.12500000000E+03  0.00000000000E+00 0.  1.
         11   -1    0    0    0    0 -0.00000000000E+00 -0.00000000000E+00 -0.12500000000E+03  0.12500000000E+03  0.00000000000E+00 0. -1.
         24    1    1    2    0    0  0.11764911011E+02 -0.44078740929E+02  0.84121552010E+02  0.12500000000E+03  0.80419002446E+02 0.  1.
        -24    1    1    2    0    0 -0.11764911011E+02  0.44078740929E+02 -0.84121552010E+02  0.12500000000E+03  0.80419002446E+02 0. -1.
</event>
<event>
 4    1  0.1653896E-001  0.1250000E+03  0.7546771E-02  0.1126479E+00
        -11   -1    0    0    0    0  0.00000000000E+00  0.00000000000E+00  0.12500000000E+03  0.12500000000E+03  0.00000000000E+00 0.  1.
         11   -1    0    0    0    0 -0.00000000000E+00 -0.00000000000E+00 -0.12500000000E+03  0.12500000000E+03  0.00000000000E+00 0. -1.
         24    1    1    2    0    0 -0.82237661028E+02 -0.13415353710E+02  0.47061443232E+02  0.12500000000E+03  0.80419002446E+02 0.  1.
        -24    1    1    2    0    0  0.82237661028E+02  0.13415353710E+02 -0.47061443232E+02  0.12500000000E+03  0.80419002446E+02 0. -1.
</event>
<event>
 4    1  0.1653896E-001  0.1250000E+03  0.7546771E-02  0.1126479E+00
        -11   -1    0    0    0    0  0.00000000000E+00  0.00000000000E+00  0.12500000000E+03  0.12500000000E+03  0.00000000000E+00 0.  1.
         11   -1    0    0    0    0 -0.00000000000E+00 -0.00000000000E+00 -0.12500000000E+03  0.12500000000E+03  0.00000000000E+00 0. -1.
         24    1    1    2    0    0  0.10340235743E+02 -0.66259537296E+01  0.94905006757E+02  0.12500000000E+03  0.80419002446E+02 0.  0.
        -24    1    1    2    0    0 -0.10340235743E+02  0.66259537296E+01 -0.94905006757E+02  0.12500000000E+03  0.80419002446E+02 0. -1.
</event>
<event>
 4    1  0.1653896E-001  0.1250000E+03  0.7546771E-02  0.1126479E+00
        -11   -1    0    0    0    0  0.00000000000E+00  0.00000000000E+00  0.12500000000E+03  0.12500000000E+03  0.00000000000E+00 0.  1.
         11   -1    0    0    0    0 -0.00000000000E+00 -0.00000000000E+00 -0.12500000000E+03  0.12500000000E+03  0.00000000000E+00 0. -1.
         24    1    1    2    0    0  0.40260178976E+01 -0.74913286566E+01  0.95317654296E+02  0.12500000000E+03  0.80419002446E+02 0.  1.
        -24    1    1    2    0    0 -0.40260178976E+01  0.74913286566E+01 -0.95317654296E+02  0.12500000000E+03  0.80419002446E+02 0.  0.
</event>
<event>
 4    1  0.1653896E-001  0.1250000E+03  0.7546771E-02  0.1126479E+00
        -11   -1    0    0    0    0  0.00000000000E+00  0.00000000000E+00  0.12500000000E+03  0.12500000000E+03  0.00000000000E+00 0.  1.
         11   -1    0    0    0    0 -0.00000000000E+00 -0.00000000000E+00 -0.12500000000E+03  0.12500000000E+03  0.00000000000E+00 0. -1.
         24    1    1    2    0    0  0.28682698196E+02 -0.23808889798E+02  0.88137526834E+02  0.12500000000E+03  0.80419002446E+02 0.  1.
        -24    1    1    2    0    0 -0.28682698196E+02  0.23808889798E+02 -0.88137526834E+02  0.12500000000E+03  0.80419002446E+02 0. -1.
</event>
<event>
 4    1  0.1653896E-001  0.1250000E+03  0.7546771E-02  0.1126479E+00
        -11   -1    0    0    0    0  0.00000000000E+00  0.00000000000E+00  0.12500000000E+03  0.12500000000E+03  0.00000000000E+00 0.  1.
         11   -1    0    0    0    0 -0.00000000000E+00 -0.00000000000E+00 -0.12500000000E+03  0.12500000000E+03  0.00000000000E+00 0. -1.
         24    1    1    2    0    0  0.49699861654E+02  0.93578103502E+01  0.81241240652E+02  0.12500000000E+03  0.80419002446E+02 0.  1.
        -24    1    1    2    0    0 -0.49699861654E+02 -0.93578103502E+01 -0.81241240652E+02  0.12500000000E+03  0.80419002446E+02 0. -1.
</event>
<event>
 4    1  0.1653896E-001  0.1250000E+03  0.7546771E-02  0.1126479E+00
        -11   -1    0    0    0    0  0.00000000000E+00  0.00000000000E+00  0.12500000000E+03  0.12500000000E+03  0.00000000000E+00 0.  1.
         11   -1    0    0    0    0 -0.00000000000E+00 -0.00000000000E+00 -0.12500000000E+03  0.12500000000E+03  0.00000000000E+00 0. -1.
         24    1    1    2    0    0  0.51409725289E+02 -0.27511182041E+02  0.75881216741E+02  0.12500000000E+03  0.80419002446E+02 0.  1.
        -24    1    1    2    0    0 -0.51409725289E+02  0.27511182041E+02 -0.75881216741E+02  0.12500000000E+03  0.80419002446E+02 0. -1.
</event>
<event>
 4    1  0.1653896E-001  0.1250000E+03  0.7546771E-02  0.1126479E+00
        -11   -1    0    0    0    0  0.00000000000E+00  0.00000000000E+00  0.12500000000E+03  0.12500000000E+03  0.00000000000E+00 0.  1.
         11   -1    0    0    0    0 -0.00000000000E+00 -0.00000000000E+00 -0.12500000000E+03  0.12500000000E+03  0.00000000000E+00 0. -1.
         24    1    1    2    0    0  0.47271620738E+02 -0.30261846981E+02  0.77507409554E+02  0.12500000000E+03  0.80419002446E+02 0.  1.
        -24    1    1    2    0    0 -0.47271620738E+02  0.30261846981E+02 -0.77507409554E+02  0.12500000000E+03  0.80419002446E+02 0. -1.
</event>
<event>
 4    1  0.1653896E-001  0.1250000E+03  0.7546771E-02  0.1126479E+00
        -11   -1    0    0    0    0  0.00000000000E+00  0.00000000000E+00  0.12500000000E+03  0.12500000000E+03  0.00000000000E+00 0.  1.
         11   -1    0    0    0    0 -0.00000000000E+00 -0.00000000000E+00 -0.12500000000E+03  0.12500000000E+03  0.00000000000E+00 0. -1.
         24    1    1    2    0    0 -0.11699887964E+02  0.31131156007E+02  0.89731531765E+02  0.12500000000E+03  0.80419002446E+02 0.  1.
        -24    1    1    2    0    0  0.11699887964E+02 -0.31131156007E+02 -0.89731531765E+02  0.12500000000E+03  0.80419002446E+02 0. -1.
</event>
<event>
 4    1  0.1653896E-001  0.1250000E+03  0.7546771E-02  0.1126479E+00
        -11   -1    0    0    0    0  0.00000000000E+00  0.00000000000E+00  0.12500000000E+03  0.12500000000E+03  0.00000000000E+00 0.  1.
         11   -1    0    0    0    0 -0.00000000000E+00 -0.00000000000E+00 -0.12500000000E+03  0.12500000000E+03  0.00000000000E+00 0. -1.
         24    1    1    2    0    0 -0.67287834326E+00 -0.58298816894E+02  0.75885303117E+02  0.12500000000E+03  0.80419002446E+02 0. -1.
        -24    1    1    2    0    0  0.67287834326E+00  0.58298816894E+02 -0.75885303117E+02  0.12500000000E+03  0.80419002446E+02 0.  0.
</event>
<event>
 4    1  0.1653896E-001  0.1250000E+03  0.7546771E-02  0.1126479E+00
        -11   -1    0    0    0    0  0.00000000000E+00  0.00000000000E+00  0.12500000000E+03  0.12500000000E+03  0.00000000000E+00 0.  1.
         11   -1    0    0    0    0 -0.00000000000E+00 -0.00000000000E+00 -0.12500000000E+03  0.12500000000E+03  0.00000000000E+00 0. -1.
         24    1    1    2    0    0 -0.17787070649E+02  0.85238304224E+01  0.93641595877E+02  0.12500000000E+03  0.80419002446E+02 0.  1.
        -24    1    1    2    0    0  0.17787070649E+02 -0.85238304224E+01 -0.93641595877E+02  0.12500000000E+03  0.80419002446E+02 0. -1.
</event>
<event>
 4    1  0.1653896E-001  0.1250000E+03  0.7546771E-02  0.1126479E+00
        -11   -1    0    0    0    0  0.00000000000E+00  0.00000000000E+00  0.12500000000E+03  0.12500000000E+03  0.00000000000E+00 0.  1.
         11   -1    0    0    0    0 -0.00000000000E+00 -0.00000000000E+00 -0.12500000000E+03  0.12500000000E+03  0.00000000000E+00 0. -1.
         24    1    1    2    0    0  0.29044276060E+02  0.29578227584E+02  0.86251623328E+02  0.12500000000E+03  0.80419002446E+02 0.  1.
        -24    1    1    2    0    0 -0.29044276060E+02 -0.29578227584E+02 -0.86251623328E+02  0.12500000000E+03  0.80419002446E+02 0. -1.
</event>
<event>
 4    1  0.1653896E-001  0.1250000E+03  0.7546771E-02  0.1126479E+00
        -11   -1    0    0    0    0  0.00000000000E+00  0.00000000000E+00  0.12500000000E+03  0.12500000000E+03  0.00000000000E+00 0.  1.
         11   -1    0    0    0    0 -0.00000000000E+00 -0.00000000000E+00 -0.12500000000E+03  0.12500000000E+03  0.00000000000E+00 0. -1.
         24    1    1    2    0    0  0.11812135872E+02  0.13224707538E+02  0.94039165257E+02  0.12500000000E+03  0.80419002446E+02 0.  1.
        -24    1    1    2    0    0 -0.11812135872E+02 -0.13224707538E+02 -0.94039165257E+02  0.12500000000E+03  0.80419002446E+02 0. -1.
</event>
<event>
 4    1  0.1653896E-001  0.1250000E+03  0.7546771E-02  0.1126479E+00
        -11   -1    0    0    0    0  0.00000000000E+00  0.00000000000E+00  0.12500000000E+03  0.12500000000E+03  0.00000000000E+00 0.  1.
         11   -1    0    0    0    0 -0.00000000000E+00 -0.00000000000E+00 -0.12500000000E+03  0.12500000000E+03  0.00000000000E+00 0. -1.
         24    1    1    2    0    0  0.17855092159E+02  0.16276515985E+02  0.92596191914E+02  0.12500000000E+03  0.80419002446E+02 0.  1.
        -24    1    1    2    0    0 -0.17855092159E+02 -0.16276515985E+02 -0.92596191914E+02  0.12500000000E+03  0.80419002446E+02 0. -1.
</event>
<event>
 4    1  0.1653896E-001  0.1250000E+03  0.7546771E-02  0.1126479E+00
        -11   -1    0    0    0    0  0.00000000000E+00  0.00000000000E+00  0.12500000000E+03  0.12500000000E+03  0.00000000000E+00 0.  1.
         11   -1    0    0    0    0 -0.00000000000E+00 -0.00000000000E+00 -0.12500000000E+03  0.12500000000E+03  0.00000000000E+00 0. -1.
         24    1    1    2    0    0  0.20114621632E+02  0.32561506977E+02  0.87709374103E+02  0.12500000000E+03  0.80419002446E+02 0.  1.
        -24    1    1    2    0    0 -0.20114621632E+02 -0.32561506977E+02 -0.87709374103E+02  0.12500000000E+03  0.80419002446E+02 0. -1.
</event>
<event>
 4    1  0.1653896E-001  0.1250000E+03  0.7546771E-02  0.1126479E+00
        -11   -1    0    0    0    0  0.00000000000E+00  0.00000000000E+00  0.12500000000E+03  0.12500000000E+03  0.00000000000E+00 0.  1.
         11   -1    0    0    0    0 -0.00000000000E+00 -0.00000000000E+00 -0.12500000000E+03  0.12500000000E+03  0.00000000000E+00 0. -1.
         24    1    1    2    0    0 -0.27679061315E+02 -0.64802740757E+02  0.64747651701E+02  0.12500000000E+03  0.80419002446E+02 0.  1.
        -24    1    1    2    0    0  0.27679061315E+02  0.64802740757E+02 -0.64747651701E+02  0.12500000000E+03  0.80419002446E+02 0. -1.
</event>
<event>
 4    1  0.1653896E-001  0.1250000E+03  0.7546771E-02  0.1126479E+00
        -11   -1    0    0    0    0  0.00000000000E+00  0.00000000000E+00  0.12500000000E+03  0.12500000000E+03  0.00000000000E+00 0.  1.
         11   -1    0    0    0    0 -0.00000000000E+00 -0.00000000000E+00 -0.12500000000E+03  0.12500000000E+03  0.00000000000E+00 0. -1.
         24    1    1    2    0    0  0.31229278961E+02  0.10028336495E+02  0.89899658778E+02  0.12500000000E+03  0.80419002446E+02 0.  1.
        -24    1    1    2    0    0 -0.31229278961E+02 -0.10028336495E+02 -0.89899658778E+02  0.12500000000E+03  0.80419002446E+02 0. -1.
</event>
<event>
 4    1  0.1653896E-001  0.1250000E+03  0.7546771E-02  0.1126479E+00
        -11   -1    0    0    0    0  0.00000000000E+00  0.00000000000E+00  0.12500000000E+03  0.12500000000E+03  0.00000000000E+00 0.  1.
         11   -1    0    0    0    0 -0.00000000000E+00 -0.00000000000E+00 -0.12500000000E+03  0.12500000000E+03  0.00000000000E+00 0. -1.
         24    1    1    2    0    0  0.17901900225E+01 -0.18257419694E+02  0.93921487911E+02  0.12500000000E+03  0.80419002446E+02 0.  1.
        -24    1    1    2    0    0 -0.17901900225E+01  0.18257419694E+02 -0.93921487911E+02  0.12500000000E+03  0.80419002446E+02 0. -1.
</event>
<event>
 4    1  0.1653896E-001  0.1250000E+03  0.7546771E-02  0.1126479E+00
        -11   -1    0    0    0    0  0.00000000000E+00  0.00000000000E+00  0.12500000000E+03  0.12500000000E+03  0.00000000000E+00 0.  1.
         11   -1    0    0    0    0 -0.00000000000E+00 -0.00000000000E+00 -0.12500000000E+03  0.12500000000E+03  0.00000000000E+00 0. -1.
         24    1    1    2    0    0  0.55148101341E+02  0.35261382384E+02  0.69807634801E+02  0.12500000000E+03  0.80419002446E+02 0.  1.
        -24    1    1    2    0    0 -0.55148101341E+02 -0.35261382384E+02 -0.69807634801E+02  0.12500000000E+03  0.80419002446E+02 0. -1.
</event>
<event>
 4    1  0.1653896E-001  0.1250000E+03  0.7546771E-02  0.1126479E+00
        -11   -1    0    0    0    0  0.00000000000E+00  0.00000000000E+00  0.12500000000E+03  0.12500000000E+03  0.00000000000E+00 0.  1.
         11   -1    0    0    0    0 -0.00000000000E+00 -0.00000000000E+00 -0.12500000000E+03  0.12500000000E+03  0.00000000000E+00 0. -1.
         24    1    1    2    0    0 -0.17822178340E+02  0.93711725487E+02 -0.76332503651E+01  0.12500000000E+03  0.80419002446E+02 0.  0.
        -24    1    1    2    0    0  0.17822178340E+02 -0.93711725487E+02  0.76332503651E+01  0.12500000000E+03  0.80419002446E+02 0.  0.
</event>
<event>
 4    1  0.1653896E-001  0.1250000E+03  0.7546771E-02  0.1126479E+00
        -11   -1    0    0    0    0  0.00000000000E+00  0.00000000000E+00  0.12500000000E+03  0.12500000000E+03  0.00000000000E+00 0.  1.
         11   -1    0    0    0    0 -0.00000000000E+00 -0.00000000000E+00 -0.12500000000E+03  0.12500000000E+03  0.00000000000E+00 0. -1.
         24    1    1    2    0    0  0.88349123293E+01 -0.56076337573E+02  0.77040072262E+02  0.12500000000E+03  0.80419002446E+02 0.  1.
        -24    1    1    2    0    0 -0.88349123293E+01  0.56076337573E+02 -0.77040072262E+02  0.12500000000E+03  0.80419002446E+02 0. -1.
</event>
<event>
 4    1  0.1653896E-001  0.1250000E+03  0.7546771E-02  0.1126479E+00
        -11   -1    0    0    0    0  0.00000000000E+00  0.00000000000E+00  0.12500000000E+03  0.12500000000E+03  0.00000000000E+00 0.  1.
         11   -1    0    0    0    0 -0.00000000000E+00 -0.00000000000E+00 -0.12500000000E+03  0.12500000000E+03  0.00000000000E+00 0. -1.
         24    1    1    2    0    0  0.79161752304E+02  0.47483365734E+02  0.25229565917E+02  0.12500000000E+03  0.80419002446E+02 0.  1.
        -24    1    1    2    0    0 -0.79161752304E+02 -0.47483365734E+02 -0.25229565917E+02  0.12500000000E+03  0.80419002446E+02 0. -1.
</event>
<event>
 4    1  0.1653896E-001  0.1250000E+03  0.7546771E-02  0.1126479E+00
        -11   -1    0    0    0    0  0.00000000000E+00  0.00000000000E+00  0.12500000000E+03  0.12500000000E+03  0.00000000000E+00 0.  1.
         11   -1    0    0    0    0 -0.00000000000E+00 -0.00000000000E+00 -0.12500000000E+03  0.12500000000E+03  0.00000000000E+00 0. -1.
         24    1    1    2    0    0  0.42742127577E+02  0.84862713766E+01  0.85199047964E+02  0.12500000000E+03  0.80419002446E+02 0.  1.
        -24    1    1    2    0    0 -0.42742127577E+02 -0.84862713766E+01 -0.85199047964E+02  0.12500000000E+03  0.80419002446E+02 0. -1.
</event>
<event>
 4    1  0.1653896E-001  0.1250000E+03  0.7546771E-02  0.1126479E+00
        -11   -1    0    0    0    0  0.00000000000E+00  0.00000000000E+00  0.12500000000E+03  0.12500000000E+03  0.00000000000E+00 0.  1.
         11   -1    0    0    0    0 -0.00000000000E+00 -0.00000000000E+00 -0.12500000000E+03  0.12500000000E+03  0.00000000000E+00 0. -1.
         24    1    1    2    0    0 -0.22761027824E+02  0.29677191548E+01  0.92902703411E+02  0.12500000000E+03  0.80419002446E+02 0.  0.
        -24    1    1    2    0    0  0.22761027824E+02 -0.29677191548E+01 -0.92902703411E+02  0.12500000000E+03  0.80419002446E+02 0.  0.
</event>
<event>
 4    1  0.1653896E-001  0.1250000E+03  0.7546771E-02  0.1126479E+00
        -11   -1    0    0    0    0  0.00000000000E+00  0.00000000000E+00  0.12500000000E+03  0.12500000000E+03  0.00000000000E+00 0.  1.
         11   -1    0    0    0    0 -0.00000000000E+00 -0.00000000000E+00 -0.12500000000E+03  0.12500000000E+03  0.00000000000E+00 0. -1.
         24    1    1    2    0    0 -0.45550230870E+02  0.75435162743E+02  0.37316172569E+02  0.12500000000E+03  0.80419002446E+02 0.  1.
        -24    1    1    2    0    0  0.45550230870E+02 -0.75435162743E+02 -0.37316172569E+02  0.12500000000E+03  0.80419002446E+02 0. -1.
</event>
<event>
 4    1  0.1653896E-001  0.1250000E+03  0.7546771E-02  0.1126479E+00
        -11   -1    0    0    0    0  0.00000000000E+00  0.00000000000E+00  0.12500000000E+03  0.12500000000E+03  0.00000000000E+00 0.  1.
         11   -1    0    0    0    0 -0.00000000000E+00 -0.00000000000E+00 -0.12500000000E+03  0.12500000000E+03  0.00000000000E+00 0. -1.
         24    1    1    2    0    0  0.44613113301E+02  0.20592441415E+01  0.84635770693E+02  0.12500000000E+03  0.80419002446E+02 0.  1.
        -24    1    1    2    0    0 -0.44613113301E+02 -0.20592441415E+01 -0.84635770693E+02  0.12500000000E+03  0.80419002446E+02 0. -1.
</event>
<event>
 4    1  0.1653896E-001  0.1250000E+03  0.7546771E-02  0.1126479E+00
        -11   -1    0    0    0    0  0.00000000000E+00  0.00000000000E+00  0.12500000000E+03  0.12500000000E+03  0.00000000000E+00 0.  1.
         11   -1    0    0    0    0 -0.00000000000E+00 -0.00000000000E+00 -0.12500000000E+03  0.12500000000E+03  0.00000000000E+00 0. -1.
         24    1    1    2    0    0 -0.27438932054E+02  0.79215812525E+02  0.46149150582E+02  0.12500000000E+03  0.80419002446E+02 0.  1.
        -24    1    1    2    0    0  0.27438932054E+02 -0.79215812525E+02 -0.46149150582E+02  0.12500000000E+03  0.80419002446E+02 0.  0.
</event>
<event>
 4    1  0.1653896E-001  0.1250000E+03  0.7546771E-02  0.1126479E+00
        -11   -1    0    0    0    0  0.00000000000E+00  0.00000000000E+00  0.12500000000E+03  0.12500000000E+03  0.00000000000E+00 0.  1.
         11   -1    0    0    0    0 -0.00000000000E+00 -0.00000000000E+00 -0.12500000000E+03  0.12500000000E+03  0.00000000000E+00 0. -1.
         24    1    1    2    0    0 -0.27421268892E+02  0.30019997888E+01  0.91634306104E+02  0.12500000000E+03  0.80419002446E+02 0.  1.
        -24    1    1    2    0    0  0.27421268892E+02 -0.30019997888E+01 -0.91634306104E+02  0.12500000000E+03  0.80419002446E+02 0. -1.
</event>
<event>
 4    1  0.1653896E-001  0.1250000E+03  0.7546771E-02  0.1126479E+00
        -11   -1    0    0    0    0  0.00000000000E+00  0.00000000000E+00  0.12500000000E+03  0.12500000000E+03  0.00000000000E+00 0.  1.
         11   -1    0    0    0    0 -0.00000000000E+00 -0.00000000000E+00 -0.12500000000E+03  0.12500000000E+03  0.00000000000E+00 0. -1.
         24    1    1    2    0    0 -0.33800558683E+02  0.56755928496E+02  0.69239229191E+02  0.12500000000E+03  0.80419002446E+02 0.  1.
        -24    1    1    2    0    0  0.33800558683E+02 -0.56755928496E+02 -0.69239229191E+02  0.12500000000E+03  0.80419002446E+02 0. -1.
</event>
<event>
 4    1  0.1653896E-001  0.1250000E+03  0.7546771E-02  0.1126479E+00
        -11   -1    0    0    0    0  0.00000000000E+00  0.00000000000E+00  0.12500000000E+03  0.12500000000E+03  0.00000000000E+00 0.  1.
         11   -1    0    0    0    0 -0.00000000000E+00 -0.00000000000E+00 -0.12500000000E+03  0.12500000000E+03  0.00000000000E+00 0. -1.
         24    1    1    2    0    0 -0.87650226437E+01 -0.17083991146E+02  0.93750176908E+02  0.12500000000E+03  0.80419002446E+02 0.  1.
        -24    1    1    2    0    0  0.87650226437E+01  0.17083991146E+02 -0.93750176908E+02  0.12500000000E+03  0.80419002446E+02 0. -1.
</event>
<event>
 4    1  0.1653896E-001  0.1250000E+03  0.7546771E-02  0.1126479E+00
        -11   -1    0    0    0    0  0.00000000000E+00  0.00000000000E+00  0.12500000000E+03  0.12500000000E+03  0.00000000000E+00 0.  1.
         11   -1    0    0    0    0 -0.00000000000E+00 -0.00000000000E+00 -0.12500000000E+03  0.12500000000E+03  0.00000000000E+00 0. -1.
         24    1    1    2    0    0 -0.30849062348E+02 -0.41841568001E+02  0.80345520006E+02  0.12500000000E+03  0.80419002446E+02 0.  1.
        -24    1    1    2    0    0  0.30849062348E+02  0.41841568001E+02 -0.80345520006E+02  0.12500000000E+03  0.80419002446E+02 0. -1.
</event>
<event>
 4    1  0.1653896E-001  0.1250000E+03  0.7546771E-02  0.1126479E+00
        -11   -1    0    0    0    0  0.00000000000E+00  0.00000000000E+00  0.12500000000E+03  0.12500000000E+03  0.00000000000E+00 0.  1.
         11   -1    0    0    0    0 -0.00000000000E+00 -0.00000000000E+00 -0.12500000000E+03  0.12500000000E+03  0.00000000000E+00 0. -1.
         24    1    1    2    0    0 -0.10095714696E+02  0.79664573727E+02  0.52052053594E+02  0.12500000000E+03  0.80419002446E+02 0. -1.
        -24    1    1    2    0    0  0.10095714696E+02 -0.79664573727E+02 -0.52052053594E+02  0.12500000000E+03  0.80419002446E+02 0.  0.
</event>
<event>
 4    1  0.1653896E-001  0.1250000E+03  0.7546771E-02  0.1126479E+00
        -11   -1    0    0    0    0  0.00000000000E+00  0.00000000000E+00  0.12500000000E+03  0.12500000000E+03  0.00000000000E+00 0.  1.
         11   -1    0    0    0    0 -0.00000000000E+00 -0.00000000000E+00 -0.12500000000E+03  0.12500000000E+03  0.00000000000E+00 0. -1.
         24    1    1    2    0    0  0.10427993539E+02 -0.10321752748E+02  0.94564805380E+02  0.12500000000E+03  0.80419002446E+02 0.  1.
        -24    1    1    2    0    0 -0.10427993539E+02  0.10321752748E+02 -0.94564805380E+02  0.12500000000E+03  0.80419002446E+02 0. -1.
</event>
<event>
 4    1  0.1653896E-001  0.1250000E+03  0.7546771E-02  0.1126479E+00
        -11   -1    0    0    0    0  0.00000000000E+00  0.00000000000E+00  0.12500000000E+03  0.12500000000E+03  0.00000000000E+00 0.  1.
         11   -1    0    0    0    0 -0.00000000000E+00 -0.00000000000E+00 -0.12500000000E+03  0.12500000000E+03  0.00000000000E+00 0. -1.
         24    1    1    2    0    0 -0.78528501152E+02  0.52269452626E+02  0.16092323471E+02  0.12500000000E+03  0.80419002446E+02 0.  0.
        -24    1    1    2    0    0  0.78528501152E+02 -0.52269452626E+02 -0.16092323471E+02  0.12500000000E+03  0.80419002446E+02 0. -1.
</event>
<event>
 4    1  0.1653896E-001  0.1250000E+03  0.7546771E-02  0.1126479E+00
        -11   -1    0    0    0    0  0.00000000000E+00  0.00000000000E+00  0.12500000000E+03  0.12500000000E+03  0.00000000000E+00 0.  1.
         11   -1    0    0    0    0 -0.00000000000E+00 -0.00000000000E+00 -0.12500000000E+03  0.12500000000E+03  0.00000000000E+00 0. -1.
         24    1    1    2    0    0  0.78899788560E+02  0.43301224151E+01 -0.53980157935E+02  0.12500000000E+03  0.80419002446E+02 0. -1.
        -24    1    1    2    0    0 -0.78899788560E+02 -0.43301224151E+01  0.53980157935E+02  0.12500000000E+03  0.80419002446E+02 0.  1.
</event>
<event>
 4    1  0.1653896E-001  0.1250000E+03  0.7546771E-02  0.1126479E+00
        -11   -1    0    0    0    0  0.00000000000E+00  0.00000000000E+00  0.12500000000E+03  0.12500000000E+03  0.00000000000E+00 0.  1.
         11   -1    0    0    0    0 -0.00000000000E+00 -0.00000000000E+00 -0.12500000000E+03  0.12500000000E+03  0.00000000000E+00 0. -1.
         24    1    1    2    0    0 -0.65747500078E+01  0.36231827950E+02  0.88327862826E+02  0.12500000000E+03  0.80419002446E+02 0.  1.
        -24    1    1    2    0    0  0.65747500078E+01 -0.36231827950E+02 -0.88327862826E+02  0.12500000000E+03  0.80419002446E+02 0.  0.
</event>
<event>
 4    1  0.1653896E-001  0.1250000E+03  0.7546771E-02  0.1126479E+00
        -11   -1    0    0    0    0  0.00000000000E+00  0.00000000000E+00  0.12500000000E+03  0.12500000000E+03  0.00000000000E+00 0.  1.
         11   -1    0    0    0    0 -0.00000000000E+00 -0.00000000000E+00 -0.12500000000E+03  0.12500000000E+03  0.00000000000E+00 0. -1.
         24    1    1    2    0    0  0.68447856587E+02  0.61256483269E+02  0.26838744975E+02  0.12500000000E+03  0.80419002446E+02 0.  1.
        -24    1    1    2    0    0 -0.68447856587E+02 -0.61256483269E+02 -0.26838744975E+02  0.12500000000E+03  0.80419002446E+02 0. -1.
</event>
<event>
 4    1  0.1653896E-001  0.1250000E+03  0.7546771E-02  0.1126479E+00
        -11   -1    0    0    0    0  0.00000000000E+00  0.00000000000E+00  0.12500000000E+03  0.12500000000E+03  0.00000000000E+00 0.  1.
         11   -1    0    0    0    0 -0.00000000000E+00 -0.00000000000E+00 -0.12500000000E+03  0.12500000000E+03  0.00000000000E+00 0. -1.
         24    1    1    2    0    0 -0.12807783711E+02 -0.11614640039E+02  0.94121436766E+02  0.12500000000E+03  0.80419002446E+02 0.  1.
        -24    1    1    2    0    0  0.12807783711E+02  0.11614640039E+02 -0.94121436766E+02  0.12500000000E+03  0.80419002446E+02 0. -1.
</event>
<event>
 4    1  0.1653896E-001  0.1250000E+03  0.7546771E-02  0.1126479E+00
        -11   -1    0    0    0    0  0.00000000000E+00  0.00000000000E+00  0.12500000000E+03  0.12500000000E+03  0.00000000000E+00 0.  1.
         11   -1    0    0    0    0 -0.00000000000E+00 -0.00000000000E+00 -0.12500000000E+03  0.12500000000E+03  0.00000000000E+00 0. -1.
         24    1    1    2    0    0  0.83222837204E+01  0.47603319778E+02  0.82598108849E+02  0.12500000000E+03  0.80419002446E+02 0.  1.
        -24    1    1    2    0    0 -0.83222837204E+01 -0.47603319778E+02 -0.82598108849E+02  0.12500000000E+03  0.80419002446E+02 0. -1.
</event>
<event>
 4    1  0.1653896E-001  0.1250000E+03  0.7546771E-02  0.1126479E+00
        -11   -1    0    0    0    0  0.00000000000E+00  0.00000000000E+00  0.12500000000E+03  0.12500000000E+03  0.00000000000E+00 0.  1.
         11   -1    0    0    0    0 -0.00000000000E+00 -0.00000000000E+00 -0.12500000000E+03  0.12500000000E+03  0.00000000000E+00 0. -1.
         24    1    1    2    0    0  0.44718739633E+02 -0.10742183664E+02  0.83920342357E+02  0.12500000000E+03  0.80419002446E+02 0.  1.
        -24    1    1    2    0    0 -0.44718739633E+02  0.10742183664E+02 -0.83920342357E+02  0.12500000000E+03  0.80419002446E+02 0. -1.
</event>
<event>
 4    1  0.1653896E-001  0.1250000E+03  0.7546771E-02  0.1126479E+00
        -11   -1    0    0    0    0  0.00000000000E+00  0.00000000000E+00  0.12500000000E+03  0.12500000000E+03  0.00000000000E+00 0.  1.
         11   -1    0    0    0    0 -0.00000000000E+00 -0.00000000000E+00 -0.12500000000E+03  0.12500000000E+03  0.00000000000E+00 0. -1.
         24    1    1    2    0    0 -0.46599057395E+02  0.48391960269E+02 -0.68150789260E+02  0.12500000000E+03  0.80419002446E+02 0.  0.
        -24    1    1    2    0    0  0.46599057395E+02 -0.48391960269E+02  0.68150789260E+02  0.12500000000E+03  0.80419002446E+02 0.  0.
</event>
<event>
 4    1  0.1653896E-001  0.1250000E+03  0.7546771E-02  0.1126479E+00
        -11   -1    0    0    0    0  0.00000000000E+00  0.00000000000E+00  0.12500000000E+03  0.12500000000E+03  0.00000000000E+00 0.  1.
         11   -1    0    0    0    0 -0.00000000000E+00 -0.00000000000E+00 -0.12500000000E+03  0.12500000000E+03  0.00000000000E+00 0. -1.
         24    1    1    2    0    0  0.30512259300E+02  0.16226190953E+02  0.89238426730E+02  0.12500000000E+03  0.80419002446E+02 0.  1.
        -24    1    1    2    0    0 -0.30512259300E+02 -0.16226190953E+02 -0.89238426730E+02  0.12500000000E+03  0.80419002446E+02 0. -1.
</event>
<event>
 4    1  0.1653896E-001  0.1250000E+03  0.7546771E-02  0.1126479E+00
        -11   -1    0    0    0    0  0.00000000000E+00  0.00000000000E+00  0.12500000000E+03  0.12500000000E+03  0.00000000000E+00 0.  1.
         11   -1    0    0    0    0 -0.00000000000E+00 -0.00000000000E+00 -0.12500000000E+03  0.12500000000E+03  0.00000000000E+00 0. -1.
         24    1    1    2    0    0 -0.89121793533E+01 -0.93608009685E+02  0.17773509154E+02  0.12500000000E+03  0.80419002446E+02 0.  1.
        -24    1    1    2    0    0  0.89121793533E+01  0.93608009685E+02 -0.17773509154E+02  0.12500000000E+03  0.80419002446E+02 0. -1.
</event>
<event>
 4    1  0.1653896E-001  0.1250000E+03  0.7546771E-02  0.1126479E+00
        -11   -1    0    0    0    0  0.00000000000E+00  0.00000000000E+00  0.12500000000E+03  0.12500000000E+03  0.00000000000E+00 0.  1.
         11   -1    0    0    0    0 -0.00000000000E+00 -0.00000000000E+00 -0.12500000000E+03  0.12500000000E+03  0.00000000000E+00 0. -1.
         24    1    1    2    0    0  0.32722236685E+02  0.49340789665E+02  0.75183281035E+02  0.12500000000E+03  0.80419002446E+02 0. -1.
        -24    1    1    2    0    0 -0.32722236685E+02 -0.49340789665E+02 -0.75183281035E+02  0.12500000000E+03  0.80419002446E+02 0.  0.
</event>
<event>
 4    1  0.1653896E-001  0.1250000E+03  0.7546771E-02  0.1126479E+00
        -11   -1    0    0    0    0  0.00000000000E+00  0.00000000000E+00  0.12500000000E+03  0.12500000000E+03  0.00000000000E+00 0.  1.
         11   -1    0    0    0    0 -0.00000000000E+00 -0.00000000000E+00 -0.12500000000E+03  0.12500000000E+03  0.00000000000E+00 0. -1.
         24    1    1    2    0    0  0.19877374589E+01 -0.20914114306E+02  0.93361837858E+02  0.12500000000E+03  0.80419002446E+02 0.  1.
        -24    1    1    2    0    0 -0.19877374589E+01  0.20914114306E+02 -0.93361837858E+02  0.12500000000E+03  0.80419002446E+02 0. -1.
</event>
<event>
 4    1  0.1653896E-001  0.1250000E+03  0.7546771E-02  0.1126479E+00
        -11   -1    0    0    0    0  0.00000000000E+00  0.00000000000E+00  0.12500000000E+03  0.12500000000E+03  0.00000000000E+00 0.  1.
         11   -1    0    0    0    0 -0.00000000000E+00 -0.00000000000E+00 -0.12500000000E+03  0.12500000000E+03  0.00000000000E+00 0. -1.
         24    1    1    2    0    0  0.30119321428E+02  0.33741474432E+02  0.84333406344E+02  0.12500000000E+03  0.80419002446E+02 0.  1.
        -24    1    1    2    0    0 -0.30119321428E+02 -0.33741474432E+02 -0.84333406344E+02  0.12500000000E+03  0.80419002446E+02 0. -1.
</event>
<event>
 4    1  0.1653896E-001  0.1250000E+03  0.7546771E-02  0.1126479E+00
        -11   -1    0    0    0    0  0.00000000000E+00  0.00000000000E+00  0.12500000000E+03  0.12500000000E+03  0.00000000000E+00 0.  1.
         11   -1    0    0    0    0 -0.00000000000E+00 -0.00000000000E+00 -0.12500000000E+03  0.12500000000E+03  0.00000000000E+00 0. -1.
         24    1    1    2    0    0 -0.13666738879E+02 -0.94293514374E+02 -0.89295823562E+01  0.12500000000E+03  0.80419002446E+02 0.  1.
        -24    1    1    2    0    0  0.13666738879E+02  0.94293514374E+02  0.89295823562E+01  0.12500000000E+03  0.80419002446E+02 0.  0.
</event>
<event>
 4    1  0.1653896E-001  0.1250000E+03  0.7546771E-02  0.1126479E+00
        -11   -1    0    0    0    0  0.00000000000E+00  0.00000000000E+00  0.12500000000E+03  0.12500000000E+03  0.00000000000E+00 0.  1.
         11   -1    0    0    0    0 -0.00000000000E+00 -0.00000000000E+00 -0.12500000000E+03  0.12500000000E+03  0.00000000000E+00 0. -1.
         24    1    1    2    0    0  0.20973793424E+02  0.68522209150E+02  0.63423898400E+02  0.12500000000E+03  0.80419002446E+02 0.  1.
        -24    1    1    2    0    0 -0.20973793424E+02 -0.68522209150E+02 -0.63423898400E+02  0.12500000000E+03  0.80419002446E+02 0. -1.
</event>
<event>
 4    1  0.1653896E-001  0.1250000E+03  0.7546771E-02  0.1126479E+00
        -11   -1    0    0    0    0  0.00000000000E+00  0.00000000000E+00  0.12500000000E+03  0.12500000000E+03  0.00000000000E+00 0.  1.
         11   -1    0    0    0    0 -0.00000000000E+00 -0.00000000000E+00 -0.12500000000E+03  0.12500000000E+03  0.00000000000E+00 0. -1.
         24    1    1    2    0    0  0.21317804775E+02  0.54811703540E+01  0.93130510665E+02  0.12500000000E+03  0.80419002446E+02 0.  0.
        -24    1    1    2    0    0 -0.21317804775E+02 -0.54811703540E+01 -0.93130510665E+02  0.12500000000E+03  0.80419002446E+02 0. -1.
</event>
<event>
 4    1  0.1653896E-001  0.1250000E+03  0.7546771E-02  0.1126479E+00
        -11   -1    0    0    0    0  0.00000000000E+00  0.00000000000E+00  0.12500000000E+03  0.12500000000E+03  0.00000000000E+00 0.  1.
         11   -1    0    0    0    0 -0.00000000000E+00 -0.00000000000E+00 -0.12500000000E+03  0.12500000000E+03  0.00000000000E+00 0. -1.
         24    1    1    2    0    0  0.91920487953E+02  0.11501733397E+02  0.24002459644E+02  0.12500000000E+03  0.80419002446E+02 0.  1.
        -24    1    1    2    0    0 -0.91920487953E+02 -0.11501733397E+02 -0.24002459644E+02  0.12500000000E+03  0.80419002446E+02 0. -1.
</event>
<event>
 4    1  0.1653896E-001  0.1250000E+03  0.7546771E-02  0.1126479E+00
        -11   -1    0    0    0    0  0.00000000000E+00  0.00000000000E+00  0.12500000000E+03  0.12500000000E+03  0.00000000000E+00 0.  1.
         11   -1    0    0    0    0 -0.00000000000E+00 -0.00000000000E+00 -0.12500000000E+03  0.12500000000E+03  0.00000000000E+00 0. -1.
         24    1    1    2    0    0 -0.91210234928E+02 -0.34789010729E+01  0.28746727420E+02  0.12500000000E+03  0.80419002446E+02 0.  1.
        -24    1    1    2    0    0  0.91210234928E+02  0.34789010729E+01 -0.28746727420E+02  0.12500000000E+03  0.80419002446E+02 0. -1.
</event>
<event>
 4    1  0.1653896E-001  0.1250000E+03  0.7546771E-02  0.1126479E+00
        -11   -1    0    0    0    0  0.00000000000E+00  0.00000000000E+00  0.12500000000E+03  0.12500000000E+03  0.00000000000E+00 0.  1.
         11   -1    0    0    0    0 -0.00000000000E+00 -0.00000000000E+00 -0.12500000000E+03  0.12500000000E+03  0.00000000000E+00 0. -1.
         24    1    1    2    0    0 -0.21870322060E+02 -0.11074190879E+02  0.92503164027E+02  0.12500000000E+03  0.80419002446E+02 0.  1.
        -24    1    1    2    0    0  0.21870322060E+02  0.11074190879E+02 -0.92503164027E+02  0.12500000000E+03  0.80419002446E+02 0. -1.
</event>
<event>
 4    1  0.1653896E-001  0.1250000E+03  0.7546771E-02  0.1126479E+00
        -11   -1    0    0    0    0  0.00000000000E+00  0.00000000000E+00  0.12500000000E+03  0.12500000000E+03  0.00000000000E+00 0.  1.
         11   -1    0    0    0    0 -0.00000000000E+00 -0.00000000000E+00 -0.12500000000E+03  0.12500000000E+03  0.00000000000E+00 0. -1.
         24    1    1    2    0    0 -0.49184101377E+02  0.80118454002E+02  0.17881318342E+02  0.12500000000E+03  0.80419002446E+02 0.  1.
        -24    1    1    2    0    0  0.49184101377E+02 -0.80118454002E+02 -0.17881318342E+02  0.12500000000E+03  0.80419002446E+02 0. -1.
</event>
<event>
 4    1  0.1653896E-001  0.1250000E+03  0.7546771E-02  0.1126479E+00
        -11   -1    0    0    0    0  0.00000000000E+00  0.00000000000E+00  0.12500000000E+03  0.12500000000E+03  0.00000000000E+00 0.  1.
         11   -1    0    0    0    0 -0.00000000000E+00 -0.00000000000E+00 -0.12500000000E+03  0.12500000000E+03  0.00000000000E+00 0. -1.
         24    1    1    2    0    0  0.64863071855E+02  0.33697090371E+02  0.61766269563E+02  0.12500000000E+03  0.80419002446E+02 0.  1.
        -24    1    1    2    0    0 -0.64863071855E+02 -0.33697090371E+02 -0.61766269563E+02  0.12500000000E+03  0.80419002446E+02 0. -1.
</event>
<event>
 4    1  0.1653896E-001  0.1250000E+03  0.7546771E-02  0.1126479E+00
        -11   -1    0    0    0    0  0.00000000000E+00  0.00000000000E+00  0.12500000000E+03  0.12500000000E+03  0.00000000000E+00 0.  1.
         11   -1    0    0    0    0 -0.00000000000E+00 -0.00000000000E+00 -0.12500000000E+03  0.12500000000E+03  0.00000000000E+00 0. -1.
         24    1    1    2    0    0  0.29328920785E+02  0.20510780223E+02  0.88751937139E+02  0.12500000000E+03  0.80419002446E+02 0.  0.
        -24    1    1    2    0    0 -0.29328920785E+02 -0.20510780223E+02 -0.88751937139E+02  0.12500000000E+03  0.80419002446E+02 0.  0.
</event>
<event>
 4    1  0.1653896E-001  0.1250000E+03  0.7546771E-02  0.1126479E+00
        -11   -1    0    0    0    0  0.00000000000E+00  0.00000000000E+00  0.12500000000E+03  0.12500000000E+03  0.00000000000E+00 0.  1.
         11   -1    0    0    0    0 -0.00000000000E+00 -0.00000000000E+00 -0.12500000000E+03  0.12500000000E+03  0.00000000000E+00 0. -1.
         24    1    1    2    0    0  0.11996283475E+00 -0.28711432825E+02  0.91287585573E+02  0.12500000000E+03  0.80419002446E+02 0.  1.
        -24    1    1    2    0    0 -0.11996283475E+00  0.28711432825E+02 -0.91287585573E+02  0.12500000000E+03  0.80419002446E+02 0. -1.
</event>
<event>
 4    1  0.1653896E-001  0.1250000E+03  0.7546771E-02  0.1126479E+00
        -11   -1    0    0    0    0  0.00000000000E+00  0.00000000000E+00  0.12500000000E+03  0.12500000000E+03  0.00000000000E+00 0.  1.
         11   -1    0    0    0    0 -0.00000000000E+00 -0.00000000000E+00 -0.12500000000E+03  0.12500000000E+03  0.00000000000E+00 0. -1.
         24    1    1    2    0    0  0.32054244003E+02  0.79250457070E+01  0.89819280433E+02  0.12500000000E+03  0.80419002446E+02 0.  1.
        -24    1    1    2    0    0 -0.32054244003E+02 -0.79250457070E+01 -0.89819280433E+02  0.12500000000E+03  0.80419002446E+02 0. -1.
</event>
<event>
 4    1  0.1653896E-001  0.1250000E+03  0.7546771E-02  0.1126479E+00
        -11   -1    0    0    0    0  0.00000000000E+00  0.00000000000E+00  0.12500000000E+03  0.12500000000E+03  0.00000000000E+00 0.  1.
         11   -1    0    0    0    0 -0.00000000000E+00 -0.00000000000E+00 -0.12500000000E+03  0.12500000000E+03  0.00000000000E+00 0. -1.
         24    1    1    2    0    0  0.51009228407E+02 -0.14103803304E+02  0.79730329206E+02  0.12500000000E+03  0.80419002446E+02 0.  1.
        -24    1    1    2    0    0 -0.51009228407E+02  0.14103803304E+02 -0.79730329206E+02  0.12500000000E+03  0.80419002446E+02 0.  1.
</event>
<event>
 4    1  0.1653896E-001  0.1250000E+03  0.7546771E-02  0.1126479E+00
        -11   -1    0    0    0    0  0.00000000000E+00  0.00000000000E+00  0.12500000000E+03  0.12500000000E+03  0.00000000000E+00 0.  1.
         11   -1    0    0    0    0 -0.00000000000E+00 -0.00000000000E+00 -0.12500000000E+03  0.12500000000E+03  0.00000000000E+00 0. -1.
         24    1    1    2    0    0  0.15311881631E+02  0.70646926971E+01  0.94198834619E+02  0.12500000000E+03  0.80419002446E+02 0.  1.
        -24    1    1    2    0    0 -0.15311881631E+02 -0.70646926971E+01 -0.94198834619E+02  0.12500000000E+03  0.80419002446E+02 0. -1.
</event>
<event>
 4    1  0.1653896E-001  0.1250000E+03  0.7546771E-02  0.1126479E+00
        -11   -1    0    0    0    0  0.00000000000E+00  0.00000000000E+00  0.12500000000E+03  0.12500000000E+03  0.00000000000E+00 0.  1.
         11   -1    0    0    0    0 -0.00000000000E+00 -0.00000000000E+00 -0.12500000000E+03  0.12500000000E+03  0.00000000000E+00 0. -1.
         24    1    1    2    0    0  0.31633063289E+02  0.47065520704E+02 -0.77084175506E+02  0.12500000000E+03  0.80419002446E+02 0. -1.
        -24    1    1    2    0    0 -0.31633063289E+02 -0.47065520704E+02  0.77084175506E+02  0.12500000000E+03  0.80419002446E+02 0.  0.
</event>
<event>
 4    1  0.1653896E-001  0.1250000E+03  0.7546771E-02  0.1126479E+00
        -11   -1    0    0    0    0  0.00000000000E+00  0.00000000000E+00  0.12500000000E+03  0.12500000000E+03  0.00000000000E+00 0.  1.
         11   -1    0    0    0    0 -0.00000000000E+00 -0.00000000000E+00 -0.12500000000E+03  0.12500000000E+03  0.00000000000E+00 0. -1.
         24    1    1    2    0    0 -0.45964792997E+02 -0.13678246616E+02  0.82812604233E+02  0.12500000000E+03  0.80419002446E+02 0.  1.
        -24    1    1    2    0    0  0.45964792997E+02  0.13678246616E+02 -0.82812604233E+02  0.12500000000E+03  0.80419002446E+02 0. -1.
</event>
<event>
 4    1  0.1653896E-001  0.1250000E+03  0.7546771E-02  0.1126479E+00
        -11   -1    0    0    0    0  0.00000000000E+00  0.00000000000E+00  0.12500000000E+03  0.12500000000E+03  0.00000000000E+00 0.  1.
         11   -1    0    0    0    0 -0.00000000000E+00 -0.00000000000E+00 -0.12500000000E+03  0.12500000000E+03  0.00000000000E+00 0. -1.
         24    1    1    2    0    0  0.57508307330E+00  0.55050663861E+00  0.95693000097E+02  0.12500000000E+03  0.80419002446E+02 0.  1.
        -24    1    1    2    0    0 -0.57508307330E+00 -0.55050663861E+00 -0.95693000097E+02  0.12500000000E+03  0.80419002446E+02 0.  0.
</event>
<event>
 4    1  0.1653896E-001  0.1250000E+03  0.7546771E-02  0.1126479E+00
        -11   -1    0    0    0    0  0.00000000000E+00  0.00000000000E+00  0.12500000000E+03  0.12500000000E+03  0.00000000000E+00 0.  1.
         11   -1    0    0    0    0 -0.00000000000E+00 -0.00000000000E+00 -0.12500000000E+03  0.12500000000E+03  0.00000000000E+00 0. -1.
         24    1    1    2    0    0 -0.87251367868E+02 -0.38912342700E+02 -0.55508950939E+01  0.12500000000E+03  0.80419002446E+02 0.  0.
        -24    1    1    2    0    0  0.87251367868E+02  0.38912342700E+02  0.55508950939E+01  0.12500000000E+03  0.80419002446E+02 0.  0.
</event>
<event>
 4    1  0.1653896E-001  0.1250000E+03  0.7546771E-02  0.1126479E+00
        -11   -1    0    0    0    0  0.00000000000E+00  0.00000000000E+00  0.12500000000E+03  0.12500000000E+03  0.00000000000E+00 0.  1.
         11   -1    0    0    0    0 -0.00000000000E+00 -0.00000000000E+00 -0.12500000000E+03  0.12500000000E+03  0.00000000000E+00 0. -1.
         24    1    1    2    0    0 -0.12276097754E+02  0.17757879496E+02  0.93229497399E+02  0.12500000000E+03  0.80419002446E+02 0.  0.
        -24    1    1    2    0    0  0.12276097754E+02 -0.17757879496E+02 -0.93229497399E+02  0.12500000000E+03  0.80419002446E+02 0.  0.
</event>
<event>
 4    1  0.1653896E-001  0.1250000E+03  0.7546771E-02  0.1126479E+00
        -11   -1    0    0    0    0  0.00000000000E+00  0.00000000000E+00  0.12500000000E+03  0.12500000000E+03  0.00000000000E+00 0.  1.
         11   -1    0    0    0    0 -0.00000000000E+00 -0.00000000000E+00 -0.12500000000E+03  0.12500000000E+03  0.00000000000E+00 0. -1.
         24    1    1    2    0    0 -0.30971094704E+02  0.18102711890E+01  0.90527886624E+02  0.12500000000E+03  0.80419002446E+02 0.  1.
        -24    1    1    2    0    0  0.30971094704E+02 -0.18102711890E+01 -0.90527886624E+02  0.12500000000E+03  0.80419002446E+02 0. -1.
</event>
<event>
 4    1  0.1653896E-001  0.1250000E+03  0.7546771E-02  0.1126479E+00
        -11   -1    0    0    0    0  0.00000000000E+00  0.00000000000E+00  0.12500000000E+03  0.12500000000E+03  0.00000000000E+00 0.  1.
         11   -1    0    0    0    0 -0.00000000000E+00 -0.00000000000E+00 -0.12500000000E+03  0.12500000000E+03  0.00000000000E+00 0. -1.
         24    1    1    2    0    0  0.80781926819E+02 -0.51291811041E+02  0.11020277391E+01  0.12500000000E+03  0.80419002446E+02 0. -1.
        -24    1    1    2    0    0 -0.80781926819E+02  0.51291811041E+02 -0.11020277391E+01  0.12500000000E+03  0.80419002446E+02 0.  1.
</event>
<event>
 4    1  0.1653896E-001  0.1250000E+03  0.7546771E-02  0.1126479E+00
        -11   -1    0    0    0    0  0.00000000000E+00  0.00000000000E+00  0.12500000000E+03  0.12500000000E+03  0.00000000000E+00 0.  1.
         11   -1    0    0    0    0 -0.00000000000E+00 -0.00000000000E+00 -0.12500000000E+03  0.12500000000E+03  0.00000000000E+00 0. -1.
         24    1    1    2    0    0  0.65454584808E+02 -0.49404487682E+02  0.49322185374E+02  0.12500000000E+03  0.80419002446E+02 0.  1.
        -24    1    1    2    0    0 -0.65454584808E+02  0.49404487682E+02 -0.49322185374E+02  0.12500000000E+03  0.80419002446E+02 0. -1.
</event>
<event>
 4    1  0.1653896E-001  0.1250000E+03  0.7546771E-02  0.1126479E+00
        -11   -1    0    0    0    0  0.00000000000E+00  0.00000000000E+00  0.12500000000E+03  0.12500000000E+03  0.00000000000E+00 0.  1.
         11   -1    0    0    0    0 -0.00000000000E+00 -0.00000000000E+00 -0.12500000000E+03  0.12500000000E+03  0.00000000000E+00 0. -1.
         24    1    1    2    0    0 -0.24411620261E+02  0.74252628819E+02  0.55212353286E+02  0.12500000000E+03  0.80419002446E+02 0.  1.
        -24    1    1    2    0    0  0.24411620261E+02 -0.74252628819E+02 -0.55212353286E+02  0.12500000000E+03  0.80419002446E+02 0. -1.
</event>
<event>
 4    1  0.1653896E-001  0.1250000E+03  0.7546771E-02  0.1126479E+00
        -11   -1    0    0    0    0  0.00000000000E+00  0.00000000000E+00  0.12500000000E+03  0.12500000000E+03  0.00000000000E+00 0.  1.
         11   -1    0    0    0    0 -0.00000000000E+00 -0.00000000000E+00 -0.12500000000E+03  0.12500000000E+03  0.00000000000E+00 0. -1.
         24    1    1    2    0    0 -0.13015501247E+02  0.13257103028E+01  0.94797802006E+02  0.12500000000E+03  0.80419002446E+02 0.  1.
        -24    1    1    2    0    0  0.13015501247E+02 -0.13257103028E+01 -0.94797802006E+02  0.12500000000E+03  0.80419002446E+02 0.  0.
</event>
<event>
 4    1  0.1653896E-001  0.1250000E+03  0.7546771E-02  0.1126479E+00
        -11   -1    0    0    0    0  0.00000000000E+00  0.00000000000E+00  0.12500000000E+03  0.12500000000E+03  0.00000000000E+00 0.  1.
         11   -1    0    0    0    0 -0.00000000000E+00 -0.00000000000E+00 -0.12500000000E+03  0.12500000000E+03  0.00000000000E+00 0. -1.
         24    1    1    2    0    0  0.28279267446E+02 -0.34972775580E+02  0.84468763733E+02  0.12500000000E+03  0.80419002446E+02 0.  1.
        -24    1    1    2    0    0 -0.28279267446E+02  0.34972775580E+02 -0.84468763733E+02  0.12500000000E+03  0.80419002446E+02 0. -1.
</event>
<event>
 4    1  0.1653896E-001  0.1250000E+03  0.7546771E-02  0.1126479E+00
        -11   -1    0    0    0    0  0.00000000000E+00  0.00000000000E+00  0.12500000000E+03  0.12500000000E+03  0.00000000000E+00 0.  1.
         11   -1    0    0    0    0 -0.00000000000E+00 -0.00000000000E+00 -0.12500000000E+03  0.12500000000E+03  0.00000000000E+00 0. -1.
         24    1    1    2    0    0 -0.41805131737E+01  0.13514808473E+02  0.94644901116E+02  0.12500000000E+03  0.80419002446E+02 0.  1.
        -24    1    1    2    0    0  0.41805131737E+01 -0.13514808473E+02 -0.94644901116E+02  0.12500000000E+03  0.80419002446E+02 0. -1.
</event>
<event>
 4    1  0.1653896E-001  0.1250000E+03  0.7546771E-02  0.1126479E+00
        -11   -1    0    0    0    0  0.00000000000E+00  0.00000000000E+00  0.12500000000E+03  0.12500000000E+03  0.00000000000E+00 0.  1.
         11   -1    0    0    0    0 -0.00000000000E+00 -0.00000000000E+00 -0.12500000000E+03  0.12500000000E+03  0.00000000000E+00 0. -1.
         24    1    1    2    0    0  0.74642879838E+02  0.40505161448E+02  0.44108462127E+02  0.12500000000E+03  0.80419002446E+02 0.  1.
        -24    1    1    2    0    0 -0.74642879838E+02 -0.40505161448E+02 -0.44108462127E+02  0.12500000000E+03  0.80419002446E+02 0. -1.
</event>
<event>
 4    1  0.1653896E-001  0.1250000E+03  0.7546771E-02  0.1126479E+00
        -11   -1    0    0    0    0  0.00000000000E+00  0.00000000000E+00  0.12500000000E+03  0.12500000000E+03  0.00000000000E+00 0.  1.
         11   -1    0    0    0    0 -0.00000000000E+00 -0.00000000000E+00 -0.12500000000E+03  0.12500000000E+03  0.00000000000E+00 0. -1.
         24    1    1    2    0    0 -0.23685652623E+02  0.32935991671E+02  0.86671762172E+02  0.12500000000E+03  0.80419002446E+02 0.  1.
        -24    1    1    2    0    0  0.23685652623E+02 -0.32935991671E+02 -0.86671762172E+02  0.12500000000E+03  0.80419002446E+02 0. -1.
</event>
<event>
 4    1  0.1653896E-001  0.1250000E+03  0.7546771E-02  0.1126479E+00
        -11   -1    0    0    0    0  0.00000000000E+00  0.00000000000E+00  0.12500000000E+03  0.12500000000E+03  0.00000000000E+00 0.  1.
         11   -1    0    0    0    0 -0.00000000000E+00 -0.00000000000E+00 -0.12500000000E+03  0.12500000000E+03  0.00000000000E+00 0. -1.
         24    1    1    2    0    0  0.66207339620E+02  0.64539107787E+02  0.24679460937E+02  0.12500000000E+03  0.80419002446E+02 0.  1.
        -24    1    1    2    0    0 -0.66207339620E+02 -0.64539107787E+02 -0.24679460937E+02  0.12500000000E+03  0.80419002446E+02 0.  0.
</event>
<event>
 4    1  0.1653896E-001  0.1250000E+03  0.7546771E-02  0.1126479E+00
        -11   -1    0    0    0    0  0.00000000000E+00  0.00000000000E+00  0.12500000000E+03  0.12500000000E+03  0.00000000000E+00 0.  1.
         11   -1    0    0    0    0 -0.00000000000E+00 -0.00000000000E+00 -0.12500000000E+03  0.12500000000E+03  0.00000000000E+00 0. -1.
         24    1    1    2    0    0 -0.83361591428E+02 -0.45643894577E+02  0.11192140458E+02  0.12500000000E+03  0.80419002446E+02 0.  1.
        -24    1    1    2    0    0  0.83361591428E+02  0.45643894577E+02 -0.11192140458E+02  0.12500000000E+03  0.80419002446E+02 0.  0.
</event>
<event>
 4    1  0.1653896E-001  0.1250000E+03  0.7546771E-02  0.1126479E+00
        -11   -1    0    0    0    0  0.00000000000E+00  0.00000000000E+00  0.12500000000E+03  0.12500000000E+03  0.00000000000E+00 0.  1.
         11   -1    0    0    0    0 -0.00000000000E+00 -0.00000000000E+00 -0.12500000000E+03  0.12500000000E+03  0.00000000000E+00 0. -1.
         24    1    1    2    0    0  0.39621461964E+02  0.43663923403E+02  0.75374966604E+02  0.12500000000E+03  0.80419002446E+02 0.  1.
        -24    1    1    2    0    0 -0.39621461964E+02 -0.43663923403E+02 -0.75374966604E+02  0.12500000000E+03  0.80419002446E+02 0. -1.
</event>
<event>
 4    1  0.1653896E-001  0.1250000E+03  0.7546771E-02  0.1126479E+00
        -11   -1    0    0    0    0  0.00000000000E+00  0.00000000000E+00  0.12500000000E+03  0.12500000000E+03  0.00000000000E+00 0.  1.
         11   -1    0    0    0    0 -0.00000000000E+00 -0.00000000000E+00 -0.12500000000E+03  0.12500000000E+03  0.00000000000E+00 0. -1.
         24    1    1    2    0    0 -0.12232079928E+02  0.15080413639E+02  0.93705610242E+02  0.12500000000E+03  0.80419002446E+02 0.  1.
        -24    1    1    2    0    0  0.12232079928E+02 -0.15080413639E+02 -0.93705610242E+02  0.12500000000E+03  0.80419002446E+02 0. -1.
</event>
<event>
 4    1  0.1653896E-001  0.1250000E+03  0.7546771E-02  0.1126479E+00
        -11   -1    0    0    0    0  0.00000000000E+00  0.00000000000E+00  0.12500000000E+03  0.12500000000E+03  0.00000000000E+00 0.  1.
         11   -1    0    0    0    0 -0.00000000000E+00 -0.00000000000E+00 -0.12500000000E+03  0.12500000000E+03  0.00000000000E+00 0. -1.
         24    1    1    2    0    0  0.95561455259E+02  0.16872233554E+01  0.47901557144E+01  0.12500000000E+03  0.80419002446E+02 0.  1.
        -24    1    1    2    0    0 -0.95561455259E+02 -0.16872233554E+01 -0.47901557144E+01  0.12500000000E+03  0.80419002446E+02 0. -1.
</event>
<event>
 4    1  0.1653896E-001  0.1250000E+03  0.7546771E-02  0.1126479E+00
        -11   -1    0    0    0    0  0.00000000000E+00  0.00000000000E+00  0.12500000000E+03  0.12500000000E+03  0.00000000000E+00 0.  1.
         11   -1    0    0    0    0 -0.00000000000E+00 -0.00000000000E+00 -0.12500000000E+03  0.12500000000E+03  0.00000000000E+00 0. -1.
         24    1    1    2    0    0  0.23460282025E+02  0.23354053189E+02  0.89788570612E+02  0.12500000000E+03  0.80419002446E+02 0.  1.
        -24    1    1    2    0    0 -0.23460282025E+02 -0.23354053189E+02 -0.89788570612E+02  0.12500000000E+03  0.80419002446E+02 0. -1.
</event>
<event>
 4    1  0.1653896E-001  0.1250000E+03  0.7546771E-02  0.1126479E+00
        -11   -1    0    0    0    0  0.00000000000E+00  0.00000000000E+00  0.12500000000E+03  0.12500000000E+03  0.00000000000E+00 0.  1.
         11   -1    0    0    0    0 -0.00000000000E+00 -0.00000000000E+00 -0.12500000000E+03  0.12500000000E+03  0.00000000000E+00 0. -1.
         24    1    1    2    0    0  0.19125135792E+02  0.53240132196E+01  0.93614465281E+02  0.12500000000E+03  0.80419002446E+02 0.  1.
        -24    1    1    2    0    0 -0.19125135792E+02 -0.53240132196E+01 -0.93614465281E+02  0.12500000000E+03  0.80419002446E+02 0. -1.
</event>
<event>
 4    1  0.1653896E-001  0.1250000E+03  0.7546771E-02  0.1126479E+00
        -11   -1    0    0    0    0  0.00000000000E+00  0.00000000000E+00  0.12500000000E+03  0.12500000000E+03  0.00000000000E+00 0.  1.
         11   -1    0    0    0    0 -0.00000000000E+00 -0.00000000000E+00 -0.12500000000E+03  0.12500000000E+03  0.00000000000E+00 0. -1.
         24    1    1    2    0    0 -0.41015041393E+02  0.10480397726E+02  0.85823724509E+02  0.12500000000E+03  0.80419002446E+02 0.  1.
        -24    1    1    2    0    0  0.41015041393E+02 -0.10480397726E+02 -0.85823724509E+02  0.12500000000E+03  0.80419002446E+02 0. -1.
</event>
<event>
 4    1  0.1653896E-001  0.1250000E+03  0.7546771E-02  0.1126479E+00
        -11   -1    0    0    0    0  0.00000000000E+00  0.00000000000E+00  0.12500000000E+03  0.12500000000E+03  0.00000000000E+00 0.  1.
         11   -1    0    0    0    0 -0.00000000000E+00 -0.00000000000E+00 -0.12500000000E+03  0.12500000000E+03  0.00000000000E+00 0. -1.
         24    1    1    2    0    0  0.46314561797E+02  0.27865166400E+02  0.78970107716E+02  0.12500000000E+03  0.80419002446E+02 0.  0.
        -24    1    1    2    0    0 -0.46314561797E+02 -0.27865166400E+02 -0.78970107716E+02  0.12500000000E+03  0.80419002446E+02 0.  0.
</event>
<event>
 4    1  0.1653896E-001  0.1250000E+03  0.7546771E-02  0.1126479E+00
        -11   -1    0    0    0    0  0.00000000000E+00  0.00000000000E+00  0.12500000000E+03  0.12500000000E+03  0.00000000000E+00 0.  1.
         11   -1    0    0    0    0 -0.00000000000E+00 -0.00000000000E+00 -0.12500000000E+03  0.12500000000E+03  0.00000000000E+00 0. -1.
         24    1    1    2    0    0  0.86813934502E+02 -0.40201539742E+02 -0.22273357041E+01  0.12500000000E+03  0.80419002446E+02 0.  1.
        -24    1    1    2    0    0 -0.86813934502E+02  0.40201539742E+02  0.22273357041E+01  0.12500000000E+03  0.80419002446E+02 0.  0.
</event>
<event>
 4    1  0.1653896E-001  0.1250000E+03  0.7546771E-02  0.1126479E+00
        -11   -1    0    0    0    0  0.00000000000E+00  0.00000000000E+00  0.12500000000E+03  0.12500000000E+03  0.00000000000E+00 0.  1.
         11   -1    0    0    0    0 -0.00000000000E+00 -0.00000000000E+00 -0.12500000000E+03  0.12500000000E+03  0.00000000000E+00 0. -1.
         24    1    1    2    0    0 -0.95045508730E+01 -0.27196167170E+02  0.91256868506E+02  0.12500000000E+03  0.80419002446E+02 0.  1.
        -24    1    1    2    0    0  0.95045508730E+01  0.27196167170E+02 -0.91256868506E+02  0.12500000000E+03  0.80419002446E+02 0. -1.
</event>
<event>
 4    1  0.1653896E-001  0.1250000E+03  0.7546771E-02  0.1126479E+00
        -11   -1    0    0    0    0  0.00000000000E+00  0.00000000000E+00  0.12500000000E+03  0.12500000000E+03  0.00000000000E+00 0.  1.
         11   -1    0    0    0    0 -0.00000000000E+00 -0.00000000000E+00 -0.12500000000E+03  0.12500000000E+03  0.00000000000E+00 0. -1.
         24    1    1    2    0    0 -0.28160465797E+02  0.24793580288E+02  0.88034371630E+02  0.12500000000E+03  0.80419002446E+02 0.  1.
        -24    1    1    2    0    0  0.28160465797E+02 -0.24793580288E+02 -0.88034371630E+02  0.12500000000E+03  0.80419002446E+02 0. -1.
</event>
<event>
 4    1  0.1653896E-001  0.1250000E+03  0.7546771E-02  0.1126479E+00
        -11   -1    0    0    0    0  0.00000000000E+00  0.00000000000E+00  0.12500000000E+03  0.12500000000E+03  0.00000000000E+00 0.  1.
         11   -1    0    0    0    0 -0.00000000000E+00 -0.00000000000E+00 -0.12500000000E+03  0.12500000000E+03  0.00000000000E+00 0. -1.
         24    1    1    2    0    0  0.29392708930E+01 -0.55007701515E+01  0.95492859733E+02  0.12500000000E+03  0.80419002446E+02 0.  1.
        -24    1    1    2    0    0 -0.29392708930E+01  0.55007701515E+01 -0.95492859733E+02  0.12500000000E+03  0.80419002446E+02 0.  0.
</event>
<event>
 4    1  0.1653896E-001  0.1250000E+03  0.7546771E-02  0.1126479E+00
        -11   -1    0    0    0    0  0.00000000000E+00  0.00000000000E+00  0.12500000000E+03  0.12500000000E+03  0.00000000000E+00 0.  1.
         11   -1    0    0    0    0 -0.00000000000E+00 -0.00000000000E+00 -0.12500000000E+03  0.12500000000E+03  0.00000000000E+00 0. -1.
         24    1    1    2    0    0  0.68905131991E+02 -0.59055716809E+02 -0.30369213739E+02  0.12500000000E+03  0.80419002446E+02 0.  1.
        -24    1    1    2    0    0 -0.68905131991E+02  0.59055716809E+02  0.30369213739E+02  0.12500000000E+03  0.80419002446E+02 0.  0.
</event>
<event>
 4    1  0.1653896E-001  0.1250000E+03  0.7546771E-02  0.1126479E+00
        -11   -1    0    0    0    0  0.00000000000E+00  0.00000000000E+00  0.12500000000E+03  0.12500000000E+03  0.00000000000E+00 0.  1.
         11   -1    0    0    0    0 -0.00000000000E+00 -0.00000000000E+00 -0.12500000000E+03  0.12500000000E+03  0.00000000000E+00 0. -1.
         24    1    1    2    0    0  0.25911889257E+02 -0.85716154293E+02  0.33750539757E+02  0.12500000000E+03  0.80419002446E+02 0.  0.
        -24    1    1    2    0    0 -0.25911889257E+02  0.85716154293E+02 -0.33750539757E+02  0.12500000000E+03  0.80419002446E+02 0.  0.
</event>
<event>
 4    1  0.1653896E-001  0.1250000E+03  0.7546771E-02  0.1126479E+00
        -11   -1    0    0    0    0  0.00000000000E+00  0.00000000000E+00  0.12500000000E+03  0.12500000000E+03  0.00000000000E+00 0.  1.
         11   -1    0    0    0    0 -0.00000000000E+00 -0.00000000000E+00 -0.12500000000E+03  0.12500000000E+03  0.00000000000E+00 0. -1.
         24    1    1    2    0    0  0.39624782450E+01  0.93116974744E+02  0.21709717326E+02  0.12500000000E+03  0.80419002446E+02 0.  1.
        -24    1    1    2    0    0 -0.39624782450E+01 -0.93116974744E+02 -0.21709717326E+02  0.12500000000E+03  0.80419002446E+02 0. -1.
</event>
<event>
 4    1  0.1653896E-001  0.1250000E+03  0.7546771E-02  0.1126479E+00
        -11   -1    0    0    0    0  0.00000000000E+00  0.00000000000E+00  0.12500000000E+03  0.12500000000E+03  0.00000000000E+00 0.  1.
         11   -1    0    0    0    0 -0.00000000000E+00 -0.00000000000E+00 -0.12500000000E+03  0.12500000000E+03  0.00000000000E+00 0. -1.
         24    1    1    2    0    0  0.41974397578E+01 -0.17784661820E+02  0.93935463745E+02  0.12500000000E+03  0.80419002446E+02 0.  1.
        -24    1    1    2    0    0 -0.41974397578E+01  0.17784661820E+02 -0.93935463745E+02  0.12500000000E+03  0.80419002446E+02 0. -1.
</event>
<event>
 4    1  0.1653896E-001  0.1250000E+03  0.7546771E-02  0.1126479E+00
        -11   -1    0    0    0    0  0.00000000000E+00  0.00000000000E+00  0.12500000000E+03  0.12500000000E+03  0.00000000000E+00 0.  1.
         11   -1    0    0    0    0 -0.00000000000E+00 -0.00000000000E+00 -0.12500000000E+03  0.12500000000E+03  0.00000000000E+00 0. -1.
         24    1    1    2    0    0  0.97654339866E+01  0.87033523370E+02 -0.38569238449E+02  0.12500000000E+03  0.80419002446E+02 0.  1.
        -24    1    1    2    0    0 -0.97654339866E+01 -0.87033523370E+02  0.38569238449E+02  0.12500000000E+03  0.80419002446E+02 0. -1.
</event>
<event>
 4    1  0.1653896E-001  0.1250000E+03  0.7546771E-02  0.1126479E+00
        -11   -1    0    0    0    0  0.00000000000E+00  0.00000000000E+00  0.12500000000E+03  0.12500000000E+03  0.00000000000E+00 0.  1.
         11   -1    0    0    0    0 -0.00000000000E+00 -0.00000000000E+00 -0.12500000000E+03  0.12500000000E+03  0.00000000000E+00 0. -1.
         24    1    1    2    0    0 -0.43311748982E+02  0.50842215916E+02  0.68534265346E+02  0.12500000000E+03  0.80419002446E+02 0.  1.
        -24    1    1    2    0    0  0.43311748982E+02 -0.50842215916E+02 -0.68534265346E+02  0.12500000000E+03  0.80419002446E+02 0. -1.
</event>
<event>
 4    1  0.1653896E-001  0.1250000E+03  0.7546771E-02  0.1126479E+00
        -11   -1    0    0    0    0  0.00000000000E+00  0.00000000000E+00  0.12500000000E+03  0.12500000000E+03  0.00000000000E+00 0.  1.
         11   -1    0    0    0    0 -0.00000000000E+00 -0.00000000000E+00 -0.12500000000E+03  0.12500000000E+03  0.00000000000E+00 0. -1.
         24    1    1    2    0    0 -0.58073085011E+02  0.25275442279E+01  0.76019157869E+02  0.12500000000E+03  0.80419002446E+02 0.  1.
        -24    1    1    2    0    0  0.58073085011E+02 -0.25275442279E+01 -0.76019157869E+02  0.12500000000E+03  0.80419002446E+02 0. -1.
</event>
<event>
 4    1  0.1653896E-001  0.1250000E+03  0.7546771E-02  0.1126479E+00
        -11   -1    0    0    0    0  0.00000000000E+00  0.00000000000E+00  0.12500000000E+03  0.12500000000E+03  0.00000000000E+00 0.  1.
         11   -1    0    0    0    0 -0.00000000000E+00 -0.00000000000E+00 -0.12500000000E+03  0.12500000000E+03  0.00000000000E+00 0. -1.
         24    1    1    2    0    0  0.32492844962E+02  0.48907643452E+01  0.89878136919E+02  0.12500000000E+03  0.80419002446E+02 0.  1.
        -24    1    1    2    0    0 -0.32492844962E+02 -0.48907643452E+01 -0.89878136919E+02  0.12500000000E+03  0.80419002446E+02 0. -1.
</event>
<event>
 4    1  0.1653896E-001  0.1250000E+03  0.7546771E-02  0.1126479E+00
        -11   -1    0    0    0    0  0.00000000000E+00  0.00000000000E+00  0.12500000000E+03  0.12500000000E+03  0.00000000000E+00 0.  1.
         11   -1    0    0    0    0 -0.00000000000E+00 -0.00000000000E+00 -0.12500000000E+03  0.12500000000E+03  0.00000000000E+00 0. -1.
         24    1    1    2    0    0  0.73719005137E+02 -0.50829404591E+02  0.33758909287E+02  0.12500000000E+03  0.80419002446E+02 0.  1.
        -24    1    1    2    0    0 -0.73719005137E+02  0.50829404591E+02 -0.33758909287E+02  0.12500000000E+03  0.80419002446E+02 0. -1.
</event>
<event>
 4    1  0.1653896E-001  0.1250000E+03  0.7546771E-02  0.1126479E+00
        -11   -1    0    0    0    0  0.00000000000E+00  0.00000000000E+00  0.12500000000E+03  0.12500000000E+03  0.00000000000E+00 0.  1.
         11   -1    0    0    0    0 -0.00000000000E+00 -0.00000000000E+00 -0.12500000000E+03  0.12500000000E+03  0.00000000000E+00 0. -1.
         24    1    1    2    0    0 -0.79340068240E+01  0.30561827781E+02  0.90337203101E+02  0.12500000000E+03  0.80419002446E+02 0.  1.
        -24    1    1    2    0    0  0.79340068240E+01 -0.30561827781E+02 -0.90337203101E+02  0.12500000000E+03  0.80419002446E+02 0. -1.
</event>
<event>
 4    1  0.1653896E-001  0.1250000E+03  0.7546771E-02  0.1126479E+00
        -11   -1    0    0    0    0  0.00000000000E+00  0.00000000000E+00  0.12500000000E+03  0.12500000000E+03  0.00000000000E+00 0.  1.
         11   -1    0    0    0    0 -0.00000000000E+00 -0.00000000000E+00 -0.12500000000E+03  0.12500000000E+03  0.00000000000E+00 0. -1.
         24    1    1    2    0    0 -0.15920859454E+01 -0.25523000983E+02  0.92216190166E+02  0.12500000000E+03  0.80419002446E+02 0.  1.
        -24    1    1    2    0    0  0.15920859454E+01  0.25523000983E+02 -0.92216190166E+02  0.12500000000E+03  0.80419002446E+02 0. -1.
</event>
<event>
 4    1  0.1653896E-001  0.1250000E+03  0.7546771E-02  0.1126479E+00
        -11   -1    0    0    0    0  0.00000000000E+00  0.00000000000E+00  0.12500000000E+03  0.12500000000E+03  0.00000000000E+00 0.  1.
         11   -1    0    0    0    0 -0.00000000000E+00 -0.00000000000E+00 -0.12500000000E+03  0.12500000000E+03  0.00000000000E+00 0. -1.
         24    1    1    2    0    0  0.50549963984E+02 -0.26840685040E+02  0.76694607460E+02  0.12500000000E+03  0.80419002446E+02 0.  0.
        -24    1    1    2    0    0 -0.50549963984E+02  0.26840685040E+02 -0.76694607460E+02  0.12500000000E+03  0.80419002446E+02 0. -1.
</event>
<event>
 4    1  0.1653896E-001  0.1250000E+03  0.7546771E-02  0.1126479E+00
        -11   -1    0    0    0    0  0.00000000000E+00  0.00000000000E+00  0.12500000000E+03  0.12500000000E+03  0.00000000000E+00 0.  1.
         11   -1    0    0    0    0 -0.00000000000E+00 -0.00000000000E+00 -0.12500000000E+03  0.12500000000E+03  0.00000000000E+00 0. -1.
         24    1    1    2    0    0  0.13945342114E+02 -0.58204608421E+02  0.74669505405E+02  0.12500000000E+03  0.80419002446E+02 0.  1.
        -24    1    1    2    0    0 -0.13945342114E+02  0.58204608421E+02 -0.74669505405E+02  0.12500000000E+03  0.80419002446E+02 0. -1.
</event>
<event>
 4    1  0.1653896E-001  0.1250000E+03  0.7546771E-02  0.1126479E+00
        -11   -1    0    0    0    0  0.00000000000E+00  0.00000000000E+00  0.12500000000E+03  0.12500000000E+03  0.00000000000E+00 0.  1.
         11   -1    0    0    0    0 -0.00000000000E+00 -0.00000000000E+00 -0.12500000000E+03  0.12500000000E+03  0.00000000000E+00 0. -1.
         24    1    1    2    0    0 -0.34161824105E+02  0.83577705606E+02 -0.31709950254E+02  0.12500000000E+03  0.80419002446E+02 0.  1.
        -24    1    1    2    0    0  0.34161824105E+02 -0.83577705606E+02  0.31709950254E+02  0.12500000000E+03  0.80419002446E+02 0. -1.
</event>
<event>
 4    1  0.1653896E-001  0.1250000E+03  0.7546771E-02  0.1126479E+00
        -11   -1    0    0    0    0  0.00000000000E+00  0.00000000000E+00  0.12500000000E+03  0.12500000000E+03  0.00000000000E+00 0.  1.
         11   -1    0    0    0    0 -0.00000000000E+00 -0.00000000000E+00 -0.12500000000E+03  0.12500000000E+03  0.00000000000E+00 0. -1.
         24    1    1    2    0    0 -0.21117717993E+01 -0.36432761500E+02  0.88464559881E+02  0.12500000000E+03  0.80419002446E+02 0.  1.
        -24    1    1    2    0    0  0.21117717993E+01  0.36432761500E+02 -0.88464559881E+02  0.12500000000E+03  0.80419002446E+02 0. -1.
</event>
<event>
 4    1  0.1653896E-001  0.1250000E+03  0.7546771E-02  0.1126479E+00
        -11   -1    0    0    0    0  0.00000000000E+00  0.00000000000E+00  0.12500000000E+03  0.12500000000E+03  0.00000000000E+00 0.  1.
         11   -1    0    0    0    0 -0.00000000000E+00 -0.00000000000E+00 -0.12500000000E+03  0.12500000000E+03  0.00000000000E+00 0. -1.
         24    1    1    2    0    0  0.28755956207E+02 -0.19179368590E+02  0.89235815953E+02  0.12500000000E+03  0.80419002446E+02 0.  1.
        -24    1    1    2    0    0 -0.28755956207E+02  0.19179368590E+02 -0.89235815953E+02  0.12500000000E+03  0.80419002446E+02 0. -1.
</event>
<event>
 4    1  0.1653896E-001  0.1250000E+03  0.7546771E-02  0.1126479E+00
        -11   -1    0    0    0    0  0.00000000000E+00  0.00000000000E+00  0.12500000000E+03  0.12500000000E+03  0.00000000000E+00 0.  1.
         11   -1    0    0    0    0 -0.00000000000E+00 -0.00000000000E+00 -0.12500000000E+03  0.12500000000E+03  0.00000000000E+00 0. -1.
         24    1    1    2    0    0 -0.39600179152E+02 -0.36275219886E+02  0.79206807024E+02  0.12500000000E+03  0.80419002446E+02 0.  1.
        -24    1    1    2    0    0  0.39600179152E+02  0.36275219886E+02 -0.79206807024E+02  0.12500000000E+03  0.80419002446E+02 0. -1.
</event>
<event>
 4    1  0.1653896E-001  0.1250000E+03  0.7546771E-02  0.1126479E+00
        -11   -1    0    0    0    0  0.00000000000E+00  0.00000000000E+00  0.12500000000E+03  0.12500000000E+03  0.00000000000E+00 0.  1.
         11   -1    0    0    0    0 -0.00000000000E+00 -0.00000000000E+00 -0.12500000000E+03  0.12500000000E+03  0.00000000000E+00 0. -1.
         24    1    1    2    0    0  0.37683568667E+02  0.84403855334E+01  0.87558509525E+02  0.12500000000E+03  0.80419002446E+02 0.  1.
        -24    1    1    2    0    0 -0.37683568667E+02 -0.84403855334E+01 -0.87558509525E+02  0.12500000000E+03  0.80419002446E+02 0. -1.
</event>
<event>
 4    1  0.1653896E-001  0.1250000E+03  0.7546771E-02  0.1126479E+00
        -11   -1    0    0    0    0  0.00000000000E+00  0.00000000000E+00  0.12500000000E+03  0.12500000000E+03  0.00000000000E+00 0.  1.
         11   -1    0    0    0    0 -0.00000000000E+00 -0.00000000000E+00 -0.12500000000E+03  0.12500000000E+03  0.00000000000E+00 0. -1.
         24    1    1    2    0    0  0.70937724491E+02 -0.13780641261E+01  0.64216230261E+02  0.12500000000E+03  0.80419002446E+02 0.  1.
        -24    1    1    2    0    0 -0.70937724491E+02  0.13780641261E+01 -0.64216230261E+02  0.12500000000E+03  0.80419002446E+02 0. -1.
</event>
<event>
 4    1  0.1653896E-001  0.1250000E+03  0.7546771E-02  0.1126479E+00
        -11   -1    0    0    0    0  0.00000000000E+00  0.00000000000E+00  0.12500000000E+03  0.12500000000E+03  0.00000000000E+00 0.  1.
         11   -1    0    0    0    0 -0.00000000000E+00 -0.00000000000E+00 -0.12500000000E+03  0.12500000000E+03  0.00000000000E+00 0. -1.
         24    1    1    2    0    0  0.24573753145E+02 -0.52723488945E+01  0.92336975471E+02  0.12500000000E+03  0.80419002446E+02 0.  1.
        -24    1    1    2    0    0 -0.24573753145E+02  0.52723488945E+01 -0.92336975471E+02  0.12500000000E+03  0.80419002446E+02 0. -1.
</event>
<event>
 4    1  0.1653896E-001  0.1250000E+03  0.7546771E-02  0.1126479E+00
        -11   -1    0    0    0    0  0.00000000000E+00  0.00000000000E+00  0.12500000000E+03  0.12500000000E+03  0.00000000000E+00 0.  1.
         11   -1    0    0    0    0 -0.00000000000E+00 -0.00000000000E+00 -0.12500000000E+03  0.12500000000E+03  0.00000000000E+00 0. -1.
         24    1    1    2    0    0  0.14323520065E+02  0.23583124226E+02  0.91632183595E+02  0.12500000000E+03  0.80419002446E+02 0.  1.
        -24    1    1    2    0    0 -0.14323520065E+02 -0.23583124226E+02 -0.91632183595E+02  0.12500000000E+03  0.80419002446E+02 0. -1.
</event>
<event>
 4    1  0.1653896E-001  0.1250000E+03  0.7546771E-02  0.1126479E+00
        -11   -1    0    0    0    0  0.00000000000E+00  0.00000000000E+00  0.12500000000E+03  0.12500000000E+03  0.00000000000E+00 0.  1.
         11   -1    0    0    0    0 -0.00000000000E+00 -0.00000000000E+00 -0.12500000000E+03  0.12500000000E+03  0.00000000000E+00 0. -1.
         24    1    1    2    0    0  0.12584468606E+02  0.38414465813E+02  0.86739518167E+02  0.12500000000E+03  0.80419002446E+02 0.  1.
        -24    1    1    2    0    0 -0.12584468606E+02 -0.38414465813E+02 -0.86739518167E+02  0.12500000000E+03  0.80419002446E+02 0. -1.
</event>
<event>
 4    1  0.1653896E-001  0.1250000E+03  0.7546771E-02  0.1126479E+00
        -11   -1    0    0    0    0  0.00000000000E+00  0.00000000000E+00  0.12500000000E+03  0.12500000000E+03  0.00000000000E+00 0.  1.
         11   -1    0    0    0    0 -0.00000000000E+00 -0.00000000000E+00 -0.12500000000E+03  0.12500000000E+03  0.00000000000E+00 0. -1.
         24    1    1    2    0    0 -0.45971133955E+02  0.46219125722E+02  0.70058770372E+02  0.12500000000E+03  0.80419002446E+02 0.  1.
        -24    1    1    2    0    0  0.45971133955E+02 -0.46219125722E+02 -0.70058770372E+02  0.12500000000E+03  0.80419002446E+02 0. -1.
</event>
<event>
 4    1  0.1653896E-001  0.1250000E+03  0.7546771E-02  0.1126479E+00
        -11   -1    0    0    0    0  0.00000000000E+00  0.00000000000E+00  0.12500000000E+03  0.12500000000E+03  0.00000000000E+00 0.  1.
         11   -1    0    0    0    0 -0.00000000000E+00 -0.00000000000E+00 -0.12500000000E+03  0.12500000000E+03  0.00000000000E+00 0. -1.
         24    1    1    2    0    0  0.25289084219E+02  0.41396693428E+02  0.82489757171E+02  0.12500000000E+03  0.80419002446E+02 0.  1.
        -24    1    1    2    0    0 -0.25289084219E+02 -0.41396693428E+02 -0.82489757171E+02  0.12500000000E+03  0.80419002446E+02 0. -1.
</event>
<event>
 4    1  0.1653896E-001  0.1250000E+03  0.7546771E-02  0.1126479E+00
        -11   -1    0    0    0    0  0.00000000000E+00  0.00000000000E+00  0.12500000000E+03  0.12500000000E+03  0.00000000000E+00 0.  1.
         11   -1    0    0    0    0 -0.00000000000E+00 -0.00000000000E+00 -0.12500000000E+03  0.12500000000E+03  0.00000000000E+00 0. -1.
         24    1    1    2    0    0 -0.34067407647E+02  0.26434966400E+02  0.85430605366E+02  0.12500000000E+03  0.80419002446E+02 0.  1.
        -24    1    1    2    0    0  0.34067407647E+02 -0.26434966400E+02 -0.85430605366E+02  0.12500000000E+03  0.80419002446E+02 0. -1.
</event>
<event>
 4    1  0.1653896E-001  0.1250000E+03  0.7546771E-02  0.1126479E+00
        -11   -1    0    0    0    0  0.00000000000E+00  0.00000000000E+00  0.12500000000E+03  0.12500000000E+03  0.00000000000E+00 0.  1.
         11   -1    0    0    0    0 -0.00000000000E+00 -0.00000000000E+00 -0.12500000000E+03  0.12500000000E+03  0.00000000000E+00 0. -1.
         24    1    1    2    0    0 -0.31704790901E+01  0.21702778631E+02  0.93148921130E+02  0.12500000000E+03  0.80419002446E+02 0.  0.
        -24    1    1    2    0    0  0.31704790901E+01 -0.21702778631E+02 -0.93148921130E+02  0.12500000000E+03  0.80419002446E+02 0.  0.
</event>
<event>
 4    1  0.1653896E-001  0.1250000E+03  0.7546771E-02  0.1126479E+00
        -11   -1    0    0    0    0  0.00000000000E+00  0.00000000000E+00  0.12500000000E+03  0.12500000000E+03  0.00000000000E+00 0.  1.
         11   -1    0    0    0    0 -0.00000000000E+00 -0.00000000000E+00 -0.12500000000E+03  0.12500000000E+03  0.00000000000E+00 0. -1.
         24    1    1    2    0    0  0.82955336029E+01  0.50807201363E+02  0.80669674956E+02  0.12500000000E+03  0.80419002446E+02 0.  1.
        -24    1    1    2    0    0 -0.82955336029E+01 -0.50807201363E+02 -0.80669674956E+02  0.12500000000E+03  0.80419002446E+02 0. -1.
</event>
<event>
 4    1  0.1653896E-001  0.1250000E+03  0.7546771E-02  0.1126479E+00
        -11   -1    0    0    0    0  0.00000000000E+00  0.00000000000E+00  0.12500000000E+03  0.12500000000E+03  0.00000000000E+00 0.  1.
         11   -1    0    0    0    0 -0.00000000000E+00 -0.00000000000E+00 -0.12500000000E+03  0.12500000000E+03  0.00000000000E+00 0. -1.
         24    1    1    2    0    0 -0.88604904077E+02 -0.24699620028E+02  0.26398556581E+02  0.12500000000E+03  0.80419002446E+02 0.  1.
        -24    1    1    2    0    0  0.88604904077E+02  0.24699620028E+02 -0.26398556581E+02  0.12500000000E+03  0.80419002446E+02 0. -1.
</event>
<event>
 4    1  0.1653896E-001  0.1250000E+03  0.7546771E-02  0.1126479E+00
        -11   -1    0    0    0    0  0.00000000000E+00  0.00000000000E+00  0.12500000000E+03  0.12500000000E+03  0.00000000000E+00 0.  1.
         11   -1    0    0    0    0 -0.00000000000E+00 -0.00000000000E+00 -0.12500000000E+03  0.12500000000E+03  0.00000000000E+00 0. -1.
         24    1    1    2    0    0  0.19324866547E+02  0.45577236761E+02  0.81896575434E+02  0.12500000000E+03  0.80419002446E+02 0.  1.
        -24    1    1    2    0    0 -0.19324866547E+02 -0.45577236761E+02 -0.81896575434E+02  0.12500000000E+03  0.80419002446E+02 0. -1.
</event>
<event>
 4    1  0.1653896E-001  0.1250000E+03  0.7546771E-02  0.1126479E+00
        -11   -1    0    0    0    0  0.00000000000E+00  0.00000000000E+00  0.12500000000E+03  0.12500000000E+03  0.00000000000E+00 0.  1.
         11   -1    0    0    0    0 -0.00000000000E+00 -0.00000000000E+00 -0.12500000000E+03  0.12500000000E+03  0.00000000000E+00 0. -1.
         24    1    1    2    0    0 -0.21425387163E+02 -0.91638036037E+02  0.17355321429E+02  0.12500000000E+03  0.80419002446E+02 0.  1.
        -24    1    1    2    0    0  0.21425387163E+02  0.91638036037E+02 -0.17355321429E+02  0.12500000000E+03  0.80419002446E+02 0. -1.
</event>
<event>
 4    1  0.1653896E-001  0.1250000E+03  0.7546771E-02  0.1126479E+00
        -11   -1    0    0    0    0  0.00000000000E+00  0.00000000000E+00  0.12500000000E+03  0.12500000000E+03  0.00000000000E+00 0.  1.
         11   -1    0    0    0    0 -0.00000000000E+00 -0.00000000000E+00 -0.12500000000E+03  0.12500000000E+03  0.00000000000E+00 0. -1.
         24    1    1    2    0    0  0.51941751744E+02  0.63705326847E+02  0.49004793671E+02  0.12500000000E+03  0.80419002446E+02 0.  1.
        -24    1    1    2    0    0 -0.51941751744E+02 -0.63705326847E+02 -0.49004793671E+02  0.12500000000E+03  0.80419002446E+02 0. -1.
</event>
<event>
 4    1  0.1653896E-001  0.1250000E+03  0.7546771E-02  0.1126479E+00
        -11   -1    0    0    0    0  0.00000000000E+00  0.00000000000E+00  0.12500000000E+03  0.12500000000E+03  0.00000000000E+00 0.  1.
         11   -1    0    0    0    0 -0.00000000000E+00 -0.00000000000E+00 -0.12500000000E+03  0.12500000000E+03  0.00000000000E+00 0. -1.
         24    1    1    2    0    0 -0.63591909782E+01  0.41504492412E+02  0.85992568547E+02  0.12500000000E+03  0.80419002446E+02 0.  1.
        -24    1    1    2    0    0  0.63591909782E+01 -0.41504492412E+02 -0.85992568547E+02  0.12500000000E+03  0.80419002446E+02 0. -1.
</event>
<event>
 4    1  0.1653896E-001  0.1250000E+03  0.7546771E-02  0.1126479E+00
        -11   -1    0    0    0    0  0.00000000000E+00  0.00000000000E+00  0.12500000000E+03  0.12500000000E+03  0.00000000000E+00 0.  1.
         11   -1    0    0    0    0 -0.00000000000E+00 -0.00000000000E+00 -0.12500000000E+03  0.12500000000E+03  0.00000000000E+00 0. -1.
         24    1    1    2    0    0  0.32894676327E+02 -0.17835999468E+01  0.89847332104E+02  0.12500000000E+03  0.80419002446E+02 0.  1.
        -24    1    1    2    0    0 -0.32894676327E+02  0.17835999468E+01 -0.89847332104E+02  0.12500000000E+03  0.80419002446E+02 0. -1.
</event>
<event>
 4    1  0.1653896E-001  0.1250000E+03  0.7546771E-02  0.1126479E+00
        -11   -1    0    0    0    0  0.00000000000E+00  0.00000000000E+00  0.12500000000E+03  0.12500000000E+03  0.00000000000E+00 0.  1.
         11   -1    0    0    0    0 -0.00000000000E+00 -0.00000000000E+00 -0.12500000000E+03  0.12500000000E+03  0.00000000000E+00 0. -1.
         24    1    1    2    0    0  0.13463958607E+02 -0.26850532928E+02  0.90860083346E+02  0.12500000000E+03  0.80419002446E+02 0.  1.
        -24    1    1    2    0    0 -0.13463958607E+02  0.26850532928E+02 -0.90860083346E+02  0.12500000000E+03  0.80419002446E+02 0. -1.
</event>
<event>
 4    1  0.1653896E-001  0.1250000E+03  0.7546771E-02  0.1126479E+00
        -11   -1    0    0    0    0  0.00000000000E+00  0.00000000000E+00  0.12500000000E+03  0.12500000000E+03  0.00000000000E+00 0.  1.
         11   -1    0    0    0    0 -0.00000000000E+00 -0.00000000000E+00 -0.12500000000E+03  0.12500000000E+03  0.00000000000E+00 0. -1.
         24    1    1    2    0    0  0.67990411685E+02  0.27439851160E+02  0.61499126277E+02  0.12500000000E+03  0.80419002446E+02 0.  1.
        -24    1    1    2    0    0 -0.67990411685E+02 -0.27439851160E+02 -0.61499126277E+02  0.12500000000E+03  0.80419002446E+02 0. -1.
</event>
<event>
 4    1  0.1653896E-001  0.1250000E+03  0.7546771E-02  0.1126479E+00
        -11   -1    0    0    0    0  0.00000000000E+00  0.00000000000E+00  0.12500000000E+03  0.12500000000E+03  0.00000000000E+00 0.  1.
         11   -1    0    0    0    0 -0.00000000000E+00 -0.00000000000E+00 -0.12500000000E+03  0.12500000000E+03  0.00000000000E+00 0. -1.
         24    1    1    2    0    0  0.11207254429E+02  0.18464828934E+02  0.93226775050E+02  0.12500000000E+03  0.80419002446E+02 0.  1.
        -24    1    1    2    0    0 -0.11207254429E+02 -0.18464828934E+02 -0.93226775050E+02  0.12500000000E+03  0.80419002446E+02 0. -1.
</event>
<event>
 4    1  0.1653896E-001  0.1250000E+03  0.7546771E-02  0.1126479E+00
        -11   -1    0    0    0    0  0.00000000000E+00  0.00000000000E+00  0.12500000000E+03  0.12500000000E+03  0.00000000000E+00 0.  1.
         11   -1    0    0    0    0 -0.00000000000E+00 -0.00000000000E+00 -0.12500000000E+03  0.12500000000E+03  0.00000000000E+00 0. -1.
         24    1    1    2    0    0  0.29232775671E+02 -0.88742974808E+02 -0.20686065222E+02  0.12500000000E+03  0.80419002446E+02 0.  0.
        -24    1    1    2    0    0 -0.29232775671E+02  0.88742974808E+02  0.20686065222E+02  0.12500000000E+03  0.80419002446E+02 0. -1.
</event>
<event>
 4    1  0.1653896E-001  0.1250000E+03  0.7546771E-02  0.1126479E+00
        -11   -1    0    0    0    0  0.00000000000E+00  0.00000000000E+00  0.12500000000E+03  0.12500000000E+03  0.00000000000E+00 0.  1.
         11   -1    0    0    0    0 -0.00000000000E+00 -0.00000000000E+00 -0.12500000000E+03  0.12500000000E+03  0.00000000000E+00 0. -1.
         24    1    1    2    0    0  0.71467994164E+02 -0.51491015574E+02 -0.37400336509E+02  0.12500000000E+03  0.80419002446E+02 0.  1.
        -24    1    1    2    0    0 -0.71467994164E+02  0.51491015574E+02  0.37400336509E+02  0.12500000000E+03  0.80419002446E+02 0. -1.
</event>
<event>
 4    1  0.1653896E-001  0.1250000E+03  0.7546771E-02  0.1126479E+00
        -11   -1    0    0    0    0  0.00000000000E+00  0.00000000000E+00  0.12500000000E+03  0.12500000000E+03  0.00000000000E+00 0.  1.
         11   -1    0    0    0    0 -0.00000000000E+00 -0.00000000000E+00 -0.12500000000E+03  0.12500000000E+03  0.00000000000E+00 0. -1.
         24    1    1    2    0    0 -0.19464138211E+02 -0.60830802440E+02  0.71263909827E+02  0.12500000000E+03  0.80419002446E+02 0.  1.
        -24    1    1    2    0    0  0.19464138211E+02  0.60830802440E+02 -0.71263909827E+02  0.12500000000E+03  0.80419002446E+02 0. -1.
</event>
<event>
 4    1  0.1653896E-001  0.1250000E+03  0.7546771E-02  0.1126479E+00
        -11   -1    0    0    0    0  0.00000000000E+00  0.00000000000E+00  0.12500000000E+03  0.12500000000E+03  0.00000000000E+00 0.  1.
         11   -1    0    0    0    0 -0.00000000000E+00 -0.00000000000E+00 -0.12500000000E+03  0.12500000000E+03  0.00000000000E+00 0. -1.
         24    1    1    2    0    0 -0.40710311328E+01 -0.89626171466E+02 -0.33292043186E+02  0.12500000000E+03  0.80419002446E+02 0.  0.
        -24    1    1    2    0    0  0.40710311328E+01  0.89626171466E+02  0.33292043186E+02  0.12500000000E+03  0.80419002446E+02 0. -1.
</event>
<event>
 4    1  0.1653896E-001  0.1250000E+03  0.7546771E-02  0.1126479E+00
        -11   -1    0    0    0    0  0.00000000000E+00  0.00000000000E+00  0.12500000000E+03  0.12500000000E+03  0.00000000000E+00 0.  1.
         11   -1    0    0    0    0 -0.00000000000E+00 -0.00000000000E+00 -0.12500000000E+03  0.12500000000E+03  0.00000000000E+00 0. -1.
         24    1    1    2    0    0  0.23907873762E+02  0.78963655798E+02  0.48486479362E+02  0.12500000000E+03  0.80419002446E+02 0.  1.
        -24    1    1    2    0    0 -0.23907873762E+02 -0.78963655798E+02 -0.48486479362E+02  0.12500000000E+03  0.80419002446E+02 0. -1.
</event>
<event>
 4    1  0.1653896E-001  0.1250000E+03  0.7546771E-02  0.1126479E+00
        -11   -1    0    0    0    0  0.00000000000E+00  0.00000000000E+00  0.12500000000E+03  0.12500000000E+03  0.00000000000E+00 0.  1.
         11   -1    0    0    0    0 -0.00000000000E+00 -0.00000000000E+00 -0.12500000000E+03  0.12500000000E+03  0.00000000000E+00 0. -1.
         24    1    1    2    0    0 -0.19663364987E+02 -0.29693664221E+02  0.88822420751E+02  0.12500000000E+03  0.80419002446E+02 0.  1.
        -24    1    1    2    0    0  0.19663364987E+02  0.29693664221E+02 -0.88822420751E+02  0.12500000000E+03  0.80419002446E+02 0. -1.
</event>
<event>
 4    1  0.1653896E-001  0.1250000E+03  0.7546771E-02  0.1126479E+00
        -11   -1    0    0    0    0  0.00000000000E+00  0.00000000000E+00  0.12500000000E+03  0.12500000000E+03  0.00000000000E+00 0.  1.
         11   -1    0    0    0    0 -0.00000000000E+00 -0.00000000000E+00 -0.12500000000E+03  0.12500000000E+03  0.00000000000E+00 0. -1.
         24    1    1    2    0    0  0.23148029669E+02  0.77984427929E+01  0.92526412759E+02  0.12500000000E+03  0.80419002446E+02 0.  1.
        -24    1    1    2    0    0 -0.23148029669E+02 -0.77984427929E+01 -0.92526412759E+02  0.12500000000E+03  0.80419002446E+02 0. -1.
</event>
<event>
 4    1  0.1653896E-001  0.1250000E+03  0.7546771E-02  0.1126479E+00
        -11   -1    0    0    0    0  0.00000000000E+00  0.00000000000E+00  0.12500000000E+03  0.12500000000E+03  0.00000000000E+00 0.  1.
         11   -1    0    0    0    0 -0.00000000000E+00 -0.00000000000E+00 -0.12500000000E+03  0.12500000000E+03  0.00000000000E+00 0. -1.
         24    1    1    2    0    0  0.52243527671E+01  0.12097525021E+02  0.94784703788E+02  0.12500000000E+03  0.80419002446E+02 0.  1.
        -24    1    1    2    0    0 -0.52243527671E+01 -0.12097525021E+02 -0.94784703788E+02  0.12500000000E+03  0.80419002446E+02 0.  0.
</event>
<event>
 4    1  0.1653896E-001  0.1250000E+03  0.7546771E-02  0.1126479E+00
        -11   -1    0    0    0    0  0.00000000000E+00  0.00000000000E+00  0.12500000000E+03  0.12500000000E+03  0.00000000000E+00 0.  1.
         11   -1    0    0    0    0 -0.00000000000E+00 -0.00000000000E+00 -0.12500000000E+03  0.12500000000E+03  0.00000000000E+00 0. -1.
         24    1    1    2    0    0 -0.68728460638E+02 -0.60781890079E+02  0.27198245943E+02  0.12500000000E+03  0.80419002446E+02 0.  0.
        -24    1    1    2    0    0  0.68728460638E+02  0.60781890079E+02 -0.27198245943E+02  0.12500000000E+03  0.80419002446E+02 0. -1.
</event>
<event>
 4    1  0.1653896E-001  0.1250000E+03  0.7546771E-02  0.1126479E+00
        -11   -1    0    0    0    0  0.00000000000E+00  0.00000000000E+00  0.12500000000E+03  0.12500000000E+03  0.00000000000E+00 0.  1.
         11   -1    0    0    0    0 -0.00000000000E+00 -0.00000000000E+00 -0.12500000000E+03  0.12500000000E+03  0.00000000000E+00 0. -1.
         24    1    1    2    0    0 -0.24230057322E+02 -0.68371881344E+00  0.92575487557E+02  0.12500000000E+03  0.80419002446E+02 0.  1.
        -24    1    1    2    0    0  0.24230057322E+02  0.68371881344E+00 -0.92575487557E+02  0.12500000000E+03  0.80419002446E+02 0. -1.
</event>
<event>
 4    1  0.1653896E-001  0.1250000E+03  0.7546771E-02  0.1126479E+00
        -11   -1    0    0    0    0  0.00000000000E+00  0.00000000000E+00  0.12500000000E+03  0.12500000000E+03  0.00000000000E+00 0.  1.
         11   -1    0    0    0    0 -0.00000000000E+00 -0.00000000000E+00 -0.12500000000E+03  0.12500000000E+03  0.00000000000E+00 0. -1.
         24    1    1    2    0    0 -0.47800170351E+02  0.38320843387E+02  0.73514901361E+02  0.12500000000E+03  0.80419002446E+02 0.  1.
        -24    1    1    2    0    0  0.47800170351E+02 -0.38320843387E+02 -0.73514901361E+02  0.12500000000E+03  0.80419002446E+02 0. -1.
</event>
<event>
 4    1  0.1653896E-001  0.1250000E+03  0.7546771E-02  0.1126479E+00
        -11   -1    0    0    0    0  0.00000000000E+00  0.00000000000E+00  0.12500000000E+03  0.12500000000E+03  0.00000000000E+00 0.  1.
         11   -1    0    0    0    0 -0.00000000000E+00 -0.00000000000E+00 -0.12500000000E+03  0.12500000000E+03  0.00000000000E+00 0. -1.
         24    1    1    2    0    0  0.26144594834E+02 -0.56872300002E+02  0.72386364041E+02  0.12500000000E+03  0.80419002446E+02 0.  1.
        -24    1    1    2    0    0 -0.26144594834E+02  0.56872300002E+02 -0.72386364041E+02  0.12500000000E+03  0.80419002446E+02 0. -1.
</event>
<event>
 4    1  0.1653896E-001  0.1250000E+03  0.7546771E-02  0.1126479E+00
        -11   -1    0    0    0    0  0.00000000000E+00  0.00000000000E+00  0.12500000000E+03  0.12500000000E+03  0.00000000000E+00 0.  1.
         11   -1    0    0    0    0 -0.00000000000E+00 -0.00000000000E+00 -0.12500000000E+03  0.12500000000E+03  0.00000000000E+00 0. -1.
         24    1    1    2    0    0 -0.78292035850E+02 -0.27714260482E+02  0.47540098171E+02  0.12500000000E+03  0.80419002446E+02 0.  0.
        -24    1    1    2    0    0  0.78292035850E+02  0.27714260482E+02 -0.47540098171E+02  0.12500000000E+03  0.80419002446E+02 0.  1.
</event>
<event>
 4    1  0.1653896E-001  0.1250000E+03  0.7546771E-02  0.1126479E+00
        -11   -1    0    0    0    0  0.00000000000E+00  0.00000000000E+00  0.12500000000E+03  0.12500000000E+03  0.00000000000E+00 0.  1.
         11   -1    0    0    0    0 -0.00000000000E+00 -0.00000000000E+00 -0.12500000000E+03  0.12500000000E+03  0.00000000000E+00 0. -1.
         24    1    1    2    0    0 -0.30840360395E+02  0.55168444063E+02  0.71854707542E+02  0.12500000000E+03  0.80419002446E+02 0.  1.
        -24    1    1    2    0    0  0.30840360395E+02 -0.55168444063E+02 -0.71854707542E+02  0.12500000000E+03  0.80419002446E+02 0. -1.
</event>
<event>
 4    1  0.1653896E-001  0.1250000E+03  0.7546771E-02  0.1126479E+00
        -11   -1    0    0    0    0  0.00000000000E+00  0.00000000000E+00  0.12500000000E+03  0.12500000000E+03  0.00000000000E+00 0.  1.
         11   -1    0    0    0    0 -0.00000000000E+00 -0.00000000000E+00 -0.12500000000E+03  0.12500000000E+03  0.00000000000E+00 0. -1.
         24    1    1    2    0    0  0.41251461844E+01 -0.94743862733E+02  0.12820596281E+02  0.12500000000E+03  0.80419002446E+02 0.  1.
        -24    1    1    2    0    0 -0.41251461844E+01  0.94743862733E+02 -0.12820596281E+02  0.12500000000E+03  0.80419002446E+02 0. -1.
</event>
<event>
 4    1  0.1653896E-001  0.1250000E+03  0.7546771E-02  0.1126479E+00
        -11   -1    0    0    0    0  0.00000000000E+00  0.00000000000E+00  0.12500000000E+03  0.12500000000E+03  0.00000000000E+00 0.  1.
         11   -1    0    0    0    0 -0.00000000000E+00 -0.00000000000E+00 -0.12500000000E+03  0.12500000000E+03  0.00000000000E+00 0. -1.
         24    1    1    2    0    0 -0.74302672456E+02  0.55221660412E+02  0.24237680021E+02  0.12500000000E+03  0.80419002446E+02 0.  1.
        -24    1    1    2    0    0  0.74302672456E+02 -0.55221660412E+02 -0.24237680021E+02  0.12500000000E+03  0.80419002446E+02 0. -1.
</event>
<event>
 4    1  0.1653896E-001  0.1250000E+03  0.7546771E-02  0.1126479E+00
        -11   -1    0    0    0    0  0.00000000000E+00  0.00000000000E+00  0.12500000000E+03  0.12500000000E+03  0.00000000000E+00 0.  1.
         11   -1    0    0    0    0 -0.00000000000E+00 -0.00000000000E+00 -0.12500000000E+03  0.12500000000E+03  0.00000000000E+00 0. -1.
         24    1    1    2    0    0 -0.25565180443E+02 -0.31146391141E+02  0.86799239129E+02  0.12500000000E+03  0.80419002446E+02 0.  1.
        -24    1    1    2    0    0  0.25565180443E+02  0.31146391141E+02 -0.86799239129E+02  0.12500000000E+03  0.80419002446E+02 0. -1.
</event>
<event>
 4    1  0.1653896E-001  0.1250000E+03  0.7546771E-02  0.1126479E+00
        -11   -1    0    0    0    0  0.00000000000E+00  0.00000000000E+00  0.12500000000E+03  0.12500000000E+03  0.00000000000E+00 0.  1.
         11   -1    0    0    0    0 -0.00000000000E+00 -0.00000000000E+00 -0.12500000000E+03  0.12500000000E+03  0.00000000000E+00 0. -1.
         24    1    1    2    0    0 -0.14692309244E+02 -0.70517508590E+02  0.63001595829E+02  0.12500000000E+03  0.80419002446E+02 0.  1.
        -24    1    1    2    0    0  0.14692309244E+02  0.70517508590E+02 -0.63001595829E+02  0.12500000000E+03  0.80419002446E+02 0. -1.
</event>
<event>
 4    1  0.1653896E-001  0.1250000E+03  0.7546771E-02  0.1126479E+00
        -11   -1    0    0    0    0  0.00000000000E+00  0.00000000000E+00  0.12500000000E+03  0.12500000000E+03  0.00000000000E+00 0.  1.
         11   -1    0    0    0    0 -0.00000000000E+00 -0.00000000000E+00 -0.12500000000E+03  0.12500000000E+03  0.00000000000E+00 0. -1.
         24    1    1    2    0    0  0.31225209918E+02 -0.64786321969E+02  0.63130838716E+02  0.12500000000E+03  0.80419002446E+02 0.  1.
        -24    1    1    2    0    0 -0.31225209918E+02  0.64786321969E+02 -0.63130838716E+02  0.12500000000E+03  0.80419002446E+02 0. -1.
</event>
<event>
 4    1  0.1653896E-001  0.1250000E+03  0.7546771E-02  0.1126479E+00
        -11   -1    0    0    0    0  0.00000000000E+00  0.00000000000E+00  0.12500000000E+03  0.12500000000E+03  0.00000000000E+00 0.  1.
         11   -1    0    0    0    0 -0.00000000000E+00 -0.00000000000E+00 -0.12500000000E+03  0.12500000000E+03  0.00000000000E+00 0. -1.
         24    1    1    2    0    0  0.90278869957E+02  0.30996681434E+02  0.68348683189E+01  0.12500000000E+03  0.80419002446E+02 0. -1.
        -24    1    1    2    0    0 -0.90278869957E+02 -0.30996681434E+02 -0.68348683189E+01  0.12500000000E+03  0.80419002446E+02 0.  1.
</event>
<event>
 4    1  0.1653896E-001  0.1250000E+03  0.7546771E-02  0.1126479E+00
        -11   -1    0    0    0    0  0.00000000000E+00  0.00000000000E+00  0.12500000000E+03  0.12500000000E+03  0.00000000000E+00 0.  1.
         11   -1    0    0    0    0 -0.00000000000E+00 -0.00000000000E+00 -0.12500000000E+03  0.12500000000E+03  0.00000000000E+00 0. -1.
         24    1    1    2    0    0 -0.32274939313E+02 -0.61647061726E+02  0.65694384223E+02  0.12500000000E+03  0.80419002446E+02 0.  1.
        -24    1    1    2    0    0  0.32274939313E+02  0.61647061726E+02 -0.65694384223E+02  0.12500000000E+03  0.80419002446E+02 0. -1.
</event>
<event>
 4    1  0.1653896E-001  0.1250000E+03  0.7546771E-02  0.1126479E+00
        -11   -1    0    0    0    0  0.00000000000E+00  0.00000000000E+00  0.12500000000E+03  0.12500000000E+03  0.00000000000E+00 0.  1.
         11   -1    0    0    0    0 -0.00000000000E+00 -0.00000000000E+00 -0.12500000000E+03  0.12500000000E+03  0.00000000000E+00 0. -1.
         24    1    1    2    0    0 -0.14241808944E+02  0.89541940665E+01  0.94206036602E+02  0.12500000000E+03  0.80419002446E+02 0.  1.
        -24    1    1    2    0    0  0.14241808944E+02 -0.89541940665E+01 -0.94206036602E+02  0.12500000000E+03  0.80419002446E+02 0.  0.
</event>
<event>
 4    1  0.1653896E-001  0.1250000E+03  0.7546771E-02  0.1126479E+00
        -11   -1    0    0    0    0  0.00000000000E+00  0.00000000000E+00  0.12500000000E+03  0.12500000000E+03  0.00000000000E+00 0.  1.
         11   -1    0    0    0    0 -0.00000000000E+00 -0.00000000000E+00 -0.12500000000E+03  0.12500000000E+03  0.00000000000E+00 0. -1.
         24    1    1    2    0    0  0.87966631479E+02 -0.22022532934E+02  0.30572272323E+02  0.12500000000E+03  0.80419002446E+02 0.  1.
        -24    1    1    2    0    0 -0.87966631479E+02  0.22022532934E+02 -0.30572272323E+02  0.12500000000E+03  0.80419002446E+02 0. -1.
</event>
<event>
 4    1  0.1653896E-001  0.1250000E+03  0.7546771E-02  0.1126479E+00
        -11   -1    0    0    0    0  0.00000000000E+00  0.00000000000E+00  0.12500000000E+03  0.12500000000E+03  0.00000000000E+00 0.  1.
         11   -1    0    0    0    0 -0.00000000000E+00 -0.00000000000E+00 -0.12500000000E+03  0.12500000000E+03  0.00000000000E+00 0. -1.
         24    1    1    2    0    0  0.31956972288E+02  0.18196287545E+02  0.88348350790E+02  0.12500000000E+03  0.80419002446E+02 0.  1.
        -24    1    1    2    0    0 -0.31956972288E+02 -0.18196287545E+02 -0.88348350790E+02  0.12500000000E+03  0.80419002446E+02 0. -1.
</event>
<event>
 4    1  0.1653896E-001  0.1250000E+03  0.7546771E-02  0.1126479E+00
        -11   -1    0    0    0    0  0.00000000000E+00  0.00000000000E+00  0.12500000000E+03  0.12500000000E+03  0.00000000000E+00 0.  1.
         11   -1    0    0    0    0 -0.00000000000E+00 -0.00000000000E+00 -0.12500000000E+03  0.12500000000E+03  0.00000000000E+00 0. -1.
         24    1    1    2    0    0 -0.19382234660E+02  0.39552467757E+02  0.84957138132E+02  0.12500000000E+03  0.80419002446E+02 0.  1.
        -24    1    1    2    0    0  0.19382234660E+02 -0.39552467757E+02 -0.84957138132E+02  0.12500000000E+03  0.80419002446E+02 0. -1.
</event>
<event>
 4    1  0.1653896E-001  0.1250000E+03  0.7546771E-02  0.1126479E+00
        -11   -1    0    0    0    0  0.00000000000E+00  0.00000000000E+00  0.12500000000E+03  0.12500000000E+03  0.00000000000E+00 0.  1.
         11   -1    0    0    0    0 -0.00000000000E+00 -0.00000000000E+00 -0.12500000000E+03  0.12500000000E+03  0.00000000000E+00 0. -1.
         24    1    1    2    0    0  0.23731880834E+02  0.37623720556E+02  0.84729201160E+02  0.12500000000E+03  0.80419002446E+02 0.  1.
        -24    1    1    2    0    0 -0.23731880834E+02 -0.37623720556E+02 -0.84729201160E+02  0.12500000000E+03  0.80419002446E+02 0. -1.
</event>
<event>
 4    1  0.1653896E-001  0.1250000E+03  0.7546771E-02  0.1126479E+00
        -11   -1    0    0    0    0  0.00000000000E+00  0.00000000000E+00  0.12500000000E+03  0.12500000000E+03  0.00000000000E+00 0.  1.
         11   -1    0    0    0    0 -0.00000000000E+00 -0.00000000000E+00 -0.12500000000E+03  0.12500000000E+03  0.00000000000E+00 0. -1.
         24    1    1    2    0    0  0.81547989948E+01  0.62950662684E+02  0.71613527819E+02  0.12500000000E+03  0.80419002446E+02 0.  1.
        -24    1    1    2    0    0 -0.81547989948E+01 -0.62950662684E+02 -0.71613527819E+02  0.12500000000E+03  0.80419002446E+02 0. -1.
</event>
<event>
 4    1  0.1653896E-001  0.1250000E+03  0.7546771E-02  0.1126479E+00
        -11   -1    0    0    0    0  0.00000000000E+00  0.00000000000E+00  0.12500000000E+03  0.12500000000E+03  0.00000000000E+00 0.  1.
         11   -1    0    0    0    0 -0.00000000000E+00 -0.00000000000E+00 -0.12500000000E+03  0.12500000000E+03  0.00000000000E+00 0. -1.
         24    1    1    2    0    0  0.73995615060E+02  0.35003894527E+02  0.49569752525E+02  0.12500000000E+03  0.80419002446E+02 0.  1.
        -24    1    1    2    0    0 -0.73995615060E+02 -0.35003894527E+02 -0.49569752525E+02  0.12500000000E+03  0.80419002446E+02 0. -1.
</event>
<event>
 4    1  0.1653896E-001  0.1250000E+03  0.7546771E-02  0.1126479E+00
        -11   -1    0    0    0    0  0.00000000000E+00  0.00000000000E+00  0.12500000000E+03  0.12500000000E+03  0.00000000000E+00 0.  1.
         11   -1    0    0    0    0 -0.00000000000E+00 -0.00000000000E+00 -0.12500000000E+03  0.12500000000E+03  0.00000000000E+00 0. -1.
         24    1    1    2    0    0  0.16296187425E+01 -0.13648349591E+02  0.94704017559E+02  0.12500000000E+03  0.80419002446E+02 0.  1.
        -24    1    1    2    0    0 -0.16296187425E+01  0.13648349591E+02 -0.94704017559E+02  0.12500000000E+03  0.80419002446E+02 0. -1.
</event>
<event>
 4    1  0.1653896E-001  0.1250000E+03  0.7546771E-02  0.1126479E+00
        -11   -1    0    0    0    0  0.00000000000E+00  0.00000000000E+00  0.12500000000E+03  0.12500000000E+03  0.00000000000E+00 0.  1.
         11   -1    0    0    0    0 -0.00000000000E+00 -0.00000000000E+00 -0.12500000000E+03  0.12500000000E+03  0.00000000000E+00 0. -1.
         24    1    1    2    0    0  0.26294363555E+02 -0.47968112244E+02  0.78520383969E+02  0.12500000000E+03  0.80419002446E+02 0.  1.
        -24    1    1    2    0    0 -0.26294363555E+02  0.47968112244E+02 -0.78520383969E+02  0.12500000000E+03  0.80419002446E+02 0. -1.
</event>
<event>
 4    1  0.1653896E-001  0.1250000E+03  0.7546771E-02  0.1126479E+00
        -11   -1    0    0    0    0  0.00000000000E+00  0.00000000000E+00  0.12500000000E+03  0.12500000000E+03  0.00000000000E+00 0.  1.
         11   -1    0    0    0    0 -0.00000000000E+00 -0.00000000000E+00 -0.12500000000E+03  0.12500000000E+03  0.00000000000E+00 0. -1.
         24    1    1    2    0    0 -0.33430438651E+02  0.69501093676E+02  0.56654989146E+02  0.12500000000E+03  0.80419002446E+02 0.  1.
        -24    1    1    2    0    0  0.33430438651E+02 -0.69501093676E+02 -0.56654989146E+02  0.12500000000E+03  0.80419002446E+02 0. -1.
</event>
<event>
 4    1  0.1653896E-001  0.1250000E+03  0.7546771E-02  0.1126479E+00
        -11   -1    0    0    0    0  0.00000000000E+00  0.00000000000E+00  0.12500000000E+03  0.12500000000E+03  0.00000000000E+00 0.  1.
         11   -1    0    0    0    0 -0.00000000000E+00 -0.00000000000E+00 -0.12500000000E+03  0.12500000000E+03  0.00000000000E+00 0. -1.
         24    1    1    2    0    0  0.22749227816E+02 -0.17101924818E+02  0.91366190940E+02  0.12500000000E+03  0.80419002446E+02 0.  1.
        -24    1    1    2    0    0 -0.22749227816E+02  0.17101924818E+02 -0.91366190940E+02  0.12500000000E+03  0.80419002446E+02 0. -1.
</event>
<event>
 4    1  0.1653896E-001  0.1250000E+03  0.7546771E-02  0.1126479E+00
        -11   -1    0    0    0    0  0.00000000000E+00  0.00000000000E+00  0.12500000000E+03  0.12500000000E+03  0.00000000000E+00 0.  1.
         11   -1    0    0    0    0 -0.00000000000E+00 -0.00000000000E+00 -0.12500000000E+03  0.12500000000E+03  0.00000000000E+00 0. -1.
         24    1    1    2    0    0 -0.20401941348E+01 -0.89285058942E+02  0.34377316697E+02  0.12500000000E+03  0.80419002446E+02 0.  1.
        -24    1    1    2    0    0  0.20401941348E+01  0.89285058942E+02 -0.34377316697E+02  0.12500000000E+03  0.80419002446E+02 0. -1.
</event>
<event>
 4    1  0.1653896E-001  0.1250000E+03  0.7546771E-02  0.1126479E+00
        -11   -1    0    0    0    0  0.00000000000E+00  0.00000000000E+00  0.12500000000E+03  0.12500000000E+03  0.00000000000E+00 0.  1.
         11   -1    0    0    0    0 -0.00000000000E+00 -0.00000000000E+00 -0.12500000000E+03  0.12500000000E+03  0.00000000000E+00 0. -1.
         24    1    1    2    0    0  0.69510494677E+02  0.37690634021E+02  0.53902609237E+02  0.12500000000E+03  0.80419002446E+02 0.  1.
        -24    1    1    2    0    0 -0.69510494677E+02 -0.37690634021E+02 -0.53902609237E+02  0.12500000000E+03  0.80419002446E+02 0. -1.
</event>
<event>
 4    1  0.1653896E-001  0.1250000E+03  0.7546771E-02  0.1126479E+00
        -11   -1    0    0    0    0  0.00000000000E+00  0.00000000000E+00  0.12500000000E+03  0.12500000000E+03  0.00000000000E+00 0.  1.
         11   -1    0    0    0    0 -0.00000000000E+00 -0.00000000000E+00 -0.12500000000E+03  0.12500000000E+03  0.00000000000E+00 0. -1.
         24    1    1    2    0    0 -0.89830051005E+02  0.32086882975E+02  0.76666761393E+01  0.12500000000E+03  0.80419002446E+02 0.  0.
        -24    1    1    2    0    0  0.89830051005E+02 -0.32086882975E+02 -0.76666761393E+01  0.12500000000E+03  0.80419002446E+02 0.  1.
</event>
<event>
 4    1  0.1653896E-001  0.1250000E+03  0.7546771E-02  0.1126479E+00
        -11   -1    0    0    0    0  0.00000000000E+00  0.00000000000E+00  0.12500000000E+03  0.12500000000E+03  0.00000000000E+00 0.  1.
         11   -1    0    0    0    0 -0.00000000000E+00 -0.00000000000E+00 -0.12500000000E+03  0.12500000000E+03  0.00000000000E+00 0. -1.
         24    1    1    2    0    0  0.38237872660E+01  0.44221381660E+02  0.84779903873E+02  0.12500000000E+03  0.80419002446E+02 0.  1.
        -24    1    1    2    0    0 -0.38237872660E+01 -0.44221381660E+02 -0.84779903873E+02  0.12500000000E+03  0.80419002446E+02 0. -1.
</event>
<event>
 4    1  0.1653896E-001  0.1250000E+03  0.7546771E-02  0.1126479E+00
        -11   -1    0    0    0    0  0.00000000000E+00  0.00000000000E+00  0.12500000000E+03  0.12500000000E+03  0.00000000000E+00 0.  1.
         11   -1    0    0    0    0 -0.00000000000E+00 -0.00000000000E+00 -0.12500000000E+03  0.12500000000E+03  0.00000000000E+00 0. -1.
         24    1    1    2    0    0 -0.11352979290E+02  0.90693871432E+01  0.94586680477E+02  0.12500000000E+03  0.80419002446E+02 0.  1.
        -24    1    1    2    0    0  0.11352979290E+02 -0.90693871432E+01 -0.94586680477E+02  0.12500000000E+03  0.80419002446E+02 0. -1.
</event>
<event>
 4    1  0.1653896E-001  0.1250000E+03  0.7546771E-02  0.1126479E+00
        -11   -1    0    0    0    0  0.00000000000E+00  0.00000000000E+00  0.12500000000E+03  0.12500000000E+03  0.00000000000E+00 0.  1.
         11   -1    0    0    0    0 -0.00000000000E+00 -0.00000000000E+00 -0.12500000000E+03  0.12500000000E+03  0.00000000000E+00 0. -1.
         24    1    1    2    0    0  0.81083994372E+01  0.36377844159E+02  0.88140174487E+02  0.12500000000E+03  0.80419002446E+02 0.  1.
        -24    1    1    2    0    0 -0.81083994372E+01 -0.36377844159E+02 -0.88140174487E+02  0.12500000000E+03  0.80419002446E+02 0. -1.
</event>
<event>
 4    1  0.1653896E-001  0.1250000E+03  0.7546771E-02  0.1126479E+00
        -11   -1    0    0    0    0  0.00000000000E+00  0.00000000000E+00  0.12500000000E+03  0.12500000000E+03  0.00000000000E+00 0.  1.
         11   -1    0    0    0    0 -0.00000000000E+00 -0.00000000000E+00 -0.12500000000E+03  0.12500000000E+03  0.00000000000E+00 0. -1.
         24    1    1    2    0    0  0.91476226119E+02  0.17035029656E+02  0.22353788612E+02  0.12500000000E+03  0.80419002446E+02 0.  1.
        -24    1    1    2    0    0 -0.91476226119E+02 -0.17035029656E+02 -0.22353788612E+02  0.12500000000E+03  0.80419002446E+02 0. -1.
</event>
<event>
 4    1  0.1653896E-001  0.1250000E+03  0.7546771E-02  0.1126479E+00
        -11   -1    0    0    0    0  0.00000000000E+00  0.00000000000E+00  0.12500000000E+03  0.12500000000E+03  0.00000000000E+00 0.  1.
         11   -1    0    0    0    0 -0.00000000000E+00 -0.00000000000E+00 -0.12500000000E+03  0.12500000000E+03  0.00000000000E+00 0. -1.
         24    1    1    2    0    0 -0.32693938537E+02 -0.39519736588E+01  0.89851390266E+02  0.12500000000E+03  0.80419002446E+02 0.  1.
        -24    1    1    2    0    0  0.32693938537E+02  0.39519736588E+01 -0.89851390266E+02  0.12500000000E+03  0.80419002446E+02 0. -1.
</event>
<event>
 4    1  0.1653896E-001  0.1250000E+03  0.7546771E-02  0.1126479E+00
        -11   -1    0    0    0    0  0.00000000000E+00  0.00000000000E+00  0.12500000000E+03  0.12500000000E+03  0.00000000000E+00 0.  1.
         11   -1    0    0    0    0 -0.00000000000E+00 -0.00000000000E+00 -0.12500000000E+03  0.12500000000E+03  0.00000000000E+00 0. -1.
         24    1    1    2    0    0 -0.38259199626E+02 -0.35270755863E+02  0.80311838918E+02  0.12500000000E+03  0.80419002446E+02 0.  1.
        -24    1    1    2    0    0  0.38259199626E+02  0.35270755863E+02 -0.80311838918E+02  0.12500000000E+03  0.80419002446E+02 0. -1.
</event>
<event>
 4    1  0.1653896E-001  0.1250000E+03  0.7546771E-02  0.1126479E+00
        -11   -1    0    0    0    0  0.00000000000E+00  0.00000000000E+00  0.12500000000E+03  0.12500000000E+03  0.00000000000E+00 0.  1.
         11   -1    0    0    0    0 -0.00000000000E+00 -0.00000000000E+00 -0.12500000000E+03  0.12500000000E+03  0.00000000000E+00 0. -1.
         24    1    1    2    0    0 -0.20368804919E+02  0.25736507622E+02  0.89891757171E+02  0.12500000000E+03  0.80419002446E+02 0.  1.
        -24    1    1    2    0    0  0.20368804919E+02 -0.25736507622E+02 -0.89891757171E+02  0.12500000000E+03  0.80419002446E+02 0. -1.
</event>
<event>
 4    1  0.1653896E-001  0.1250000E+03  0.7546771E-02  0.1126479E+00
        -11   -1    0    0    0    0  0.00000000000E+00  0.00000000000E+00  0.12500000000E+03  0.12500000000E+03  0.00000000000E+00 0.  1.
         11   -1    0    0    0    0 -0.00000000000E+00 -0.00000000000E+00 -0.12500000000E+03  0.12500000000E+03  0.00000000000E+00 0. -1.
         24    1    1    2    0    0 -0.31460969497E+01 -0.24405693882E+02  0.92478366258E+02  0.12500000000E+03  0.80419002446E+02 0.  1.
        -24    1    1    2    0    0  0.31460969497E+01  0.24405693882E+02 -0.92478366258E+02  0.12500000000E+03  0.80419002446E+02 0. -1.
</event>
<event>
 4    1  0.1653896E-001  0.1250000E+03  0.7546771E-02  0.1126479E+00
        -11   -1    0    0    0    0  0.00000000000E+00  0.00000000000E+00  0.12500000000E+03  0.12500000000E+03  0.00000000000E+00 0.  1.
         11   -1    0    0    0    0 -0.00000000000E+00 -0.00000000000E+00 -0.12500000000E+03  0.12500000000E+03  0.00000000000E+00 0. -1.
         24    1    1    2    0    0 -0.54378382835E+02 -0.51802503338E+02  0.59306628414E+02  0.12500000000E+03  0.80419002446E+02 0.  1.
        -24    1    1    2    0    0  0.54378382835E+02  0.51802503338E+02 -0.59306628414E+02  0.12500000000E+03  0.80419002446E+02 0.  0.
</event>
<event>
 4    1  0.1653896E-001  0.1250000E+03  0.7546771E-02  0.1126479E+00
        -11   -1    0    0    0    0  0.00000000000E+00  0.00000000000E+00  0.12500000000E+03  0.12500000000E+03  0.00000000000E+00 0.  1.
         11   -1    0    0    0    0 -0.00000000000E+00 -0.00000000000E+00 -0.12500000000E+03  0.12500000000E+03  0.00000000000E+00 0. -1.
         24    1    1    2    0    0 -0.49696453810E+02  0.67012745568E+02  0.46875776856E+02  0.12500000000E+03  0.80419002446E+02 0.  1.
        -24    1    1    2    0    0  0.49696453810E+02 -0.67012745568E+02 -0.46875776856E+02  0.12500000000E+03  0.80419002446E+02 0. -1.
</event>
<event>
 4    1  0.1653896E-001  0.1250000E+03  0.7546771E-02  0.1126479E+00
        -11   -1    0    0    0    0  0.00000000000E+00  0.00000000000E+00  0.12500000000E+03  0.12500000000E+03  0.00000000000E+00 0. -1.
         11   -1    0    0    0    0 -0.00000000000E+00 -0.00000000000E+00 -0.12500000000E+03  0.12500000000E+03  0.00000000000E+00 0.  1.
         24    1    1    2    0    0  0.38140046315E+02  0.11158385386E+01 -0.87760331683E+02  0.12500000000E+03  0.80419002446E+02 0.  0.
        -24    1    1    2    0    0 -0.38140046315E+02 -0.11158385386E+01  0.87760331683E+02  0.12500000000E+03  0.80419002446E+02 0.  0.
</event>
<event>
 4    1  0.1653896E-001  0.1250000E+03  0.7546771E-02  0.1126479E+00
        -11   -1    0    0    0    0  0.00000000000E+00  0.00000000000E+00  0.12500000000E+03  0.12500000000E+03  0.00000000000E+00 0.  1.
         11   -1    0    0    0    0 -0.00000000000E+00 -0.00000000000E+00 -0.12500000000E+03  0.12500000000E+03  0.00000000000E+00 0. -1.
         24    1    1    2    0    0  0.30664229095E+01  0.81519043615E+01  0.95299147695E+02  0.12500000000E+03  0.80419002446E+02 0.  1.
        -24    1    1    2    0    0 -0.30664229095E+01 -0.81519043615E+01 -0.95299147695E+02  0.12500000000E+03  0.80419002446E+02 0.  0.
</event>
<event>
 4    1  0.1653896E-001  0.1250000E+03  0.7546771E-02  0.1126479E+00
        -11   -1    0    0    0    0  0.00000000000E+00  0.00000000000E+00  0.12500000000E+03  0.12500000000E+03  0.00000000000E+00 0.  1.
         11   -1    0    0    0    0 -0.00000000000E+00 -0.00000000000E+00 -0.12500000000E+03  0.12500000000E+03  0.00000000000E+00 0. -1.
         24    1    1    2    0    0 -0.13713961682E+02 -0.27152486824E+02  0.90732870339E+02  0.12500000000E+03  0.80419002446E+02 0.  1.
        -24    1    1    2    0    0  0.13713961682E+02  0.27152486824E+02 -0.90732870339E+02  0.12500000000E+03  0.80419002446E+02 0. -1.
</event>
<event>
 4    1  0.1653896E-001  0.1250000E+03  0.7546771E-02  0.1126479E+00
        -11   -1    0    0    0    0  0.00000000000E+00  0.00000000000E+00  0.12500000000E+03  0.12500000000E+03  0.00000000000E+00 0.  1.
         11   -1    0    0    0    0 -0.00000000000E+00 -0.00000000000E+00 -0.12500000000E+03  0.12500000000E+03  0.00000000000E+00 0. -1.
         24    1    1    2    0    0  0.28870968444E+02  0.54683661887E+01  0.91073312216E+02  0.12500000000E+03  0.80419002446E+02 0.  1.
        -24    1    1    2    0    0 -0.28870968444E+02 -0.54683661887E+01 -0.91073312216E+02  0.12500000000E+03  0.80419002446E+02 0. -1.
</event>
<event>
 4    1  0.1653896E-001  0.1250000E+03  0.7546771E-02  0.1126479E+00
        -11   -1    0    0    0    0  0.00000000000E+00  0.00000000000E+00  0.12500000000E+03  0.12500000000E+03  0.00000000000E+00 0.  1.
         11   -1    0    0    0    0 -0.00000000000E+00 -0.00000000000E+00 -0.12500000000E+03  0.12500000000E+03  0.00000000000E+00 0. -1.
         24    1    1    2    0    0 -0.74516398277E-01  0.78614699462E+02  0.54566542143E+02  0.12500000000E+03  0.80419002446E+02 0.  1.
        -24    1    1    2    0    0  0.74516398277E-01 -0.78614699462E+02 -0.54566542143E+02  0.12500000000E+03  0.80419002446E+02 0. -1.
</event>
<event>
 4    1  0.1653896E-001  0.1250000E+03  0.7546771E-02  0.1126479E+00
        -11   -1    0    0    0    0  0.00000000000E+00  0.00000000000E+00  0.12500000000E+03  0.12500000000E+03  0.00000000000E+00 0.  1.
         11   -1    0    0    0    0 -0.00000000000E+00 -0.00000000000E+00 -0.12500000000E+03  0.12500000000E+03  0.00000000000E+00 0. -1.
         24    1    1    2    0    0  0.59184467763E+02 -0.66012645889E+02  0.36018237102E+02  0.12500000000E+03  0.80419002446E+02 0.  1.
        -24    1    1    2    0    0 -0.59184467763E+02  0.66012645889E+02 -0.36018237102E+02  0.12500000000E+03  0.80419002446E+02 0. -1.
</event>
<event>
 4    1  0.1653896E-001  0.1250000E+03  0.7546771E-02  0.1126479E+00
        -11   -1    0    0    0    0  0.00000000000E+00  0.00000000000E+00  0.12500000000E+03  0.12500000000E+03  0.00000000000E+00 0.  1.
         11   -1    0    0    0    0 -0.00000000000E+00 -0.00000000000E+00 -0.12500000000E+03  0.12500000000E+03  0.00000000000E+00 0. -1.
         24    1    1    2    0    0 -0.21657704498E+02  0.35351506226E+02  0.86249631240E+02  0.12500000000E+03  0.80419002446E+02 0.  1.
        -24    1    1    2    0    0  0.21657704498E+02 -0.35351506226E+02 -0.86249631240E+02  0.12500000000E+03  0.80419002446E+02 0. -1.
</event>
<event>
 4    1  0.1653896E-001  0.1250000E+03  0.7546771E-02  0.1126479E+00
        -11   -1    0    0    0    0  0.00000000000E+00  0.00000000000E+00  0.12500000000E+03  0.12500000000E+03  0.00000000000E+00 0.  1.
         11   -1    0    0    0    0 -0.00000000000E+00 -0.00000000000E+00 -0.12500000000E+03  0.12500000000E+03  0.00000000000E+00 0. -1.
         24    1    1    2    0    0 -0.38422678584E+02 -0.51573348401E+02  0.70863753434E+02  0.12500000000E+03  0.80419002446E+02 0.  1.
        -24    1    1    2    0    0  0.38422678584E+02  0.51573348401E+02 -0.70863753434E+02  0.12500000000E+03  0.80419002446E+02 0. -1.
</event>
<event>
 4    1  0.1653896E-001  0.1250000E+03  0.7546771E-02  0.1126479E+00
        -11   -1    0    0    0    0  0.00000000000E+00  0.00000000000E+00  0.12500000000E+03  0.12500000000E+03  0.00000000000E+00 0.  1.
         11   -1    0    0    0    0 -0.00000000000E+00 -0.00000000000E+00 -0.12500000000E+03  0.12500000000E+03  0.00000000000E+00 0. -1.
         24    1    1    2    0    0 -0.72837041159E+02  0.40049664373E+02  0.47419129730E+02  0.12500000000E+03  0.80419002446E+02 0.  1.
        -24    1    1    2    0    0  0.72837041159E+02 -0.40049664373E+02 -0.47419129730E+02  0.12500000000E+03  0.80419002446E+02 0. -1.
</event>
<event>
 4    1  0.1653896E-001  0.1250000E+03  0.7546771E-02  0.1126479E+00
        -11   -1    0    0    0    0  0.00000000000E+00  0.00000000000E+00  0.12500000000E+03  0.12500000000E+03  0.00000000000E+00 0.  1.
         11   -1    0    0    0    0 -0.00000000000E+00 -0.00000000000E+00 -0.12500000000E+03  0.12500000000E+03  0.00000000000E+00 0. -1.
         24    1    1    2    0    0 -0.22245539489E+02  0.43229269484E+02  0.82426635733E+02  0.12500000000E+03  0.80419002446E+02 0.  1.
        -24    1    1    2    0    0  0.22245539489E+02 -0.43229269484E+02 -0.82426635733E+02  0.12500000000E+03  0.80419002446E+02 0. -1.
</event>
<event>
 4    1  0.1653896E-001  0.1250000E+03  0.7546771E-02  0.1126479E+00
        -11   -1    0    0    0    0  0.00000000000E+00  0.00000000000E+00  0.12500000000E+03  0.12500000000E+03  0.00000000000E+00 0.  1.
         11   -1    0    0    0    0 -0.00000000000E+00 -0.00000000000E+00 -0.12500000000E+03  0.12500000000E+03  0.00000000000E+00 0. -1.
         24    1    1    2    0    0 -0.25314087607E+02 -0.34260470960E+02  0.85692480089E+02  0.12500000000E+03  0.80419002446E+02 0.  1.
        -24    1    1    2    0    0  0.25314087607E+02  0.34260470960E+02 -0.85692480089E+02  0.12500000000E+03  0.80419002446E+02 0. -1.
</event>
<event>
 4    1  0.1653896E-001  0.1250000E+03  0.7546771E-02  0.1126479E+00
        -11   -1    0    0    0    0  0.00000000000E+00  0.00000000000E+00  0.12500000000E+03  0.12500000000E+03  0.00000000000E+00 0.  1.
         11   -1    0    0    0    0 -0.00000000000E+00 -0.00000000000E+00 -0.12500000000E+03  0.12500000000E+03  0.00000000000E+00 0. -1.
         24    1    1    2    0    0  0.31990129196E+02  0.10597485509E+02  0.89566226785E+02  0.12500000000E+03  0.80419002446E+02 0.  1.
        -24    1    1    2    0    0 -0.31990129196E+02 -0.10597485509E+02 -0.89566226785E+02  0.12500000000E+03  0.80419002446E+02 0. -1.
</event>
<event>
 4    1  0.1653896E-001  0.1250000E+03  0.7546771E-02  0.1126479E+00
        -11   -1    0    0    0    0  0.00000000000E+00  0.00000000000E+00  0.12500000000E+03  0.12500000000E+03  0.00000000000E+00 0.  1.
         11   -1    0    0    0    0 -0.00000000000E+00 -0.00000000000E+00 -0.12500000000E+03  0.12500000000E+03  0.00000000000E+00 0. -1.
         24    1    1    2    0    0 -0.30664627427E+02  0.48095371236E+02  0.76839442580E+02  0.12500000000E+03  0.80419002446E+02 0.  1.
        -24    1    1    2    0    0  0.30664627427E+02 -0.48095371236E+02 -0.76839442580E+02  0.12500000000E+03  0.80419002446E+02 0. -1.
</event>
<event>
 4    1  0.1653896E-001  0.1250000E+03  0.7546771E-02  0.1126479E+00
        -11   -1    0    0    0    0  0.00000000000E+00  0.00000000000E+00  0.12500000000E+03  0.12500000000E+03  0.00000000000E+00 0.  1.
         11   -1    0    0    0    0 -0.00000000000E+00 -0.00000000000E+00 -0.12500000000E+03  0.12500000000E+03  0.00000000000E+00 0. -1.
         24    1    1    2    0    0  0.46507166855E+02 -0.41369715447E+02  0.72687097346E+02  0.12500000000E+03  0.80419002446E+02 0.  1.
        -24    1    1    2    0    0 -0.46507166855E+02  0.41369715447E+02 -0.72687097346E+02  0.12500000000E+03  0.80419002446E+02 0. -1.
</event>
<event>
 4    1  0.1653896E-001  0.1250000E+03  0.7546771E-02  0.1126479E+00
        -11   -1    0    0    0    0  0.00000000000E+00  0.00000000000E+00  0.12500000000E+03  0.12500000000E+03  0.00000000000E+00 0.  1.
         11   -1    0    0    0    0 -0.00000000000E+00 -0.00000000000E+00 -0.12500000000E+03  0.12500000000E+03  0.00000000000E+00 0. -1.
         24    1    1    2    0    0  0.66124366963E+02  0.29381503723E+02  0.62626506995E+02  0.12500000000E+03  0.80419002446E+02 0.  1.
        -24    1    1    2    0    0 -0.66124366963E+02 -0.29381503723E+02 -0.62626506995E+02  0.12500000000E+03  0.80419002446E+02 0. -1.
</event>
<event>
 4    1  0.1653896E-001  0.1250000E+03  0.7546771E-02  0.1126479E+00
        -11   -1    0    0    0    0  0.00000000000E+00  0.00000000000E+00  0.12500000000E+03  0.12500000000E+03  0.00000000000E+00 0.  1.
         11   -1    0    0    0    0 -0.00000000000E+00 -0.00000000000E+00 -0.12500000000E+03  0.12500000000E+03  0.00000000000E+00 0. -1.
         24    1    1    2    0    0  0.32360155456E+02  0.13141005724E+02  0.89094996229E+02  0.12500000000E+03  0.80419002446E+02 0.  1.
        -24    1    1    2    0    0 -0.32360155456E+02 -0.13141005724E+02 -0.89094996229E+02  0.12500000000E+03  0.80419002446E+02 0. -1.
</event>
<event>
 4    1  0.1653896E-001  0.1250000E+03  0.7546771E-02  0.1126479E+00
        -11   -1    0    0    0    0  0.00000000000E+00  0.00000000000E+00  0.12500000000E+03  0.12500000000E+03  0.00000000000E+00 0.  1.
         11   -1    0    0    0    0 -0.00000000000E+00 -0.00000000000E+00 -0.12500000000E+03  0.12500000000E+03  0.00000000000E+00 0. -1.
         24    1    1    2    0    0 -0.67408082828E+02 -0.57339295557E+02 -0.36416199694E+02  0.12500000000E+03  0.80419002446E+02 0. -1.
        -24    1    1    2    0    0  0.67408082828E+02  0.57339295557E+02  0.36416199694E+02  0.12500000000E+03  0.80419002446E+02 0.  1.
</event>
<event>
 4    1  0.1653896E-001  0.1250000E+03  0.7546771E-02  0.1126479E+00
        -11   -1    0    0    0    0  0.00000000000E+00  0.00000000000E+00  0.12500000000E+03  0.12500000000E+03  0.00000000000E+00 0.  1.
         11   -1    0    0    0    0 -0.00000000000E+00 -0.00000000000E+00 -0.12500000000E+03  0.12500000000E+03  0.00000000000E+00 0. -1.
         24    1    1    2    0    0 -0.31068202132E+02  0.34735964055E+02  0.83582077403E+02  0.12500000000E+03  0.80419002446E+02 0.  1.
        -24    1    1    2    0    0  0.31068202132E+02 -0.34735964055E+02 -0.83582077403E+02  0.12500000000E+03  0.80419002446E+02 0. -1.
</event>
<event>
 4    1  0.1653896E-001  0.1250000E+03  0.7546771E-02  0.1126479E+00
        -11   -1    0    0    0    0  0.00000000000E+00  0.00000000000E+00  0.12500000000E+03  0.12500000000E+03  0.00000000000E+00 0.  1.
         11   -1    0    0    0    0 -0.00000000000E+00 -0.00000000000E+00 -0.12500000000E+03  0.12500000000E+03  0.00000000000E+00 0. -1.
         24    1    1    2    0    0 -0.36990842584E+02  0.66842015950E+02  0.57633380209E+02  0.12500000000E+03  0.80419002446E+02 0.  1.
        -24    1    1    2    0    0  0.36990842584E+02 -0.66842015950E+02 -0.57633380209E+02  0.12500000000E+03  0.80419002446E+02 0. -1.
</event>
<event>
 4    1  0.1653896E-001  0.1250000E+03  0.7546771E-02  0.1126479E+00
        -11   -1    0    0    0    0  0.00000000000E+00  0.00000000000E+00  0.12500000000E+03  0.12500000000E+03  0.00000000000E+00 0.  1.
         11   -1    0    0    0    0 -0.00000000000E+00 -0.00000000000E+00 -0.12500000000E+03  0.12500000000E+03  0.00000000000E+00 0. -1.
         24    1    1    2    0    0  0.28988134191E+02  0.12222424516E+02  0.90377455489E+02  0.12500000000E+03  0.80419002446E+02 0.  1.
        -24    1    1    2    0    0 -0.28988134191E+02 -0.12222424516E+02 -0.90377455489E+02  0.12500000000E+03  0.80419002446E+02 0. -1.
</event>
<event>
 4    1  0.1653896E-001  0.1250000E+03  0.7546771E-02  0.1126479E+00
        -11   -1    0    0    0    0  0.00000000000E+00  0.00000000000E+00  0.12500000000E+03  0.12500000000E+03  0.00000000000E+00 0.  1.
         11   -1    0    0    0    0 -0.00000000000E+00 -0.00000000000E+00 -0.12500000000E+03  0.12500000000E+03  0.00000000000E+00 0. -1.
         24    1    1    2    0    0  0.20171952621E+02 -0.20067127407E+02  0.91368412325E+02  0.12500000000E+03  0.80419002446E+02 0.  1.
        -24    1    1    2    0    0 -0.20171952621E+02  0.20067127407E+02 -0.91368412325E+02  0.12500000000E+03  0.80419002446E+02 0. -1.
</event>
<event>
 4    1  0.1653896E-001  0.1250000E+03  0.7546771E-02  0.1126479E+00
        -11   -1    0    0    0    0  0.00000000000E+00  0.00000000000E+00  0.12500000000E+03  0.12500000000E+03  0.00000000000E+00 0.  1.
         11   -1    0    0    0    0 -0.00000000000E+00 -0.00000000000E+00 -0.12500000000E+03  0.12500000000E+03  0.00000000000E+00 0. -1.
         24    1    1    2    0    0 -0.14889866865E+02 -0.27755797879E+01  0.94490063325E+02  0.12500000000E+03  0.80419002446E+02 0.  1.
        -24    1    1    2    0    0  0.14889866865E+02  0.27755797879E+01 -0.94490063325E+02  0.12500000000E+03  0.80419002446E+02 0.  0.
</event>
<event>
 4    1  0.1653896E-001  0.1250000E+03  0.7546771E-02  0.1126479E+00
        -11   -1    0    0    0    0  0.00000000000E+00  0.00000000000E+00  0.12500000000E+03  0.12500000000E+03  0.00000000000E+00 0.  1.
         11   -1    0    0    0    0 -0.00000000000E+00 -0.00000000000E+00 -0.12500000000E+03  0.12500000000E+03  0.00000000000E+00 0. -1.
         24    1    1    2    0    0 -0.30276413651E+02 -0.26748730823E+02  0.86750378797E+02  0.12500000000E+03  0.80419002446E+02 0.  1.
        -24    1    1    2    0    0  0.30276413651E+02  0.26748730823E+02 -0.86750378797E+02  0.12500000000E+03  0.80419002446E+02 0. -1.
</event>
<event>
 4    1  0.1653896E-001  0.1250000E+03  0.7546771E-02  0.1126479E+00
        -11   -1    0    0    0    0  0.00000000000E+00  0.00000000000E+00  0.12500000000E+03  0.12500000000E+03  0.00000000000E+00 0.  1.
         11   -1    0    0    0    0 -0.00000000000E+00 -0.00000000000E+00 -0.12500000000E+03  0.12500000000E+03  0.00000000000E+00 0. -1.
         24    1    1    2    0    0 -0.20485039547E+02  0.87710302985E+01  0.93065655469E+02  0.12500000000E+03  0.80419002446E+02 0.  1.
        -24    1    1    2    0    0  0.20485039547E+02 -0.87710302985E+01 -0.93065655469E+02  0.12500000000E+03  0.80419002446E+02 0. -1.
</event>
<event>
 4    1  0.1653896E-001  0.1250000E+03  0.7546771E-02  0.1126479E+00
        -11   -1    0    0    0    0  0.00000000000E+00  0.00000000000E+00  0.12500000000E+03  0.12500000000E+03  0.00000000000E+00 0.  1.
         11   -1    0    0    0    0 -0.00000000000E+00 -0.00000000000E+00 -0.12500000000E+03  0.12500000000E+03  0.00000000000E+00 0. -1.
         24    1    1    2    0    0 -0.30798790721E+02  0.75509300037E+02  0.50075584308E+02  0.12500000000E+03  0.80419002446E+02 0.  0.
        -24    1    1    2    0    0  0.30798790721E+02 -0.75509300037E+02 -0.50075584308E+02  0.12500000000E+03  0.80419002446E+02 0. -1.
</event>
<event>
 4    1  0.1653896E-001  0.1250000E+03  0.7546771E-02  0.1126479E+00
        -11   -1    0    0    0    0  0.00000000000E+00  0.00000000000E+00  0.12500000000E+03  0.12500000000E+03  0.00000000000E+00 0.  1.
         11   -1    0    0    0    0 -0.00000000000E+00 -0.00000000000E+00 -0.12500000000E+03  0.12500000000E+03  0.00000000000E+00 0. -1.
         24    1    1    2    0    0 -0.13212926756E+02  0.33152436819E+02  0.88792559064E+02  0.12500000000E+03  0.80419002446E+02 0.  1.
        -24    1    1    2    0    0  0.13212926756E+02 -0.33152436819E+02 -0.88792559064E+02  0.12500000000E+03  0.80419002446E+02 0. -1.
</event>
<event>
 4    1  0.1653896E-001  0.1250000E+03  0.7546771E-02  0.1126479E+00
        -11   -1    0    0    0    0  0.00000000000E+00  0.00000000000E+00  0.12500000000E+03  0.12500000000E+03  0.00000000000E+00 0.  1.
         11   -1    0    0    0    0 -0.00000000000E+00 -0.00000000000E+00 -0.12500000000E+03  0.12500000000E+03  0.00000000000E+00 0. -1.
         24    1    1    2    0    0  0.19626425885E+02  0.15765026331E+02  0.92325789449E+02  0.12500000000E+03  0.80419002446E+02 0.  1.
        -24    1    1    2    0    0 -0.19626425885E+02 -0.15765026331E+02 -0.92325789449E+02  0.12500000000E+03  0.80419002446E+02 0.  1.
</event>
<event>
 4    1  0.1653896E-001  0.1250000E+03  0.7546771E-02  0.1126479E+00
        -11   -1    0    0    0    0  0.00000000000E+00  0.00000000000E+00  0.12500000000E+03  0.12500000000E+03  0.00000000000E+00 0.  1.
         11   -1    0    0    0    0 -0.00000000000E+00 -0.00000000000E+00 -0.12500000000E+03  0.12500000000E+03  0.00000000000E+00 0. -1.
         24    1    1    2    0    0  0.29797024584E+02  0.90938916163E+02 -0.18681176992E+00  0.12500000000E+03  0.80419002446E+02 0.  1.
        -24    1    1    2    0    0 -0.29797024584E+02 -0.90938916163E+02  0.18681176992E+00  0.12500000000E+03  0.80419002446E+02 0.  0.
</event>
<event>
 4    1  0.1653896E-001  0.1250000E+03  0.7546771E-02  0.1126479E+00
        -11   -1    0    0    0    0  0.00000000000E+00  0.00000000000E+00  0.12500000000E+03  0.12500000000E+03  0.00000000000E+00 0.  1.
         11   -1    0    0    0    0 -0.00000000000E+00 -0.00000000000E+00 -0.12500000000E+03  0.12500000000E+03  0.00000000000E+00 0. -1.
         24    1    1    2    0    0  0.41078043225E+02 -0.27320816689E+02  0.81999703572E+02  0.12500000000E+03  0.80419002446E+02 0.  1.
        -24    1    1    2    0    0 -0.41078043225E+02  0.27320816689E+02 -0.81999703572E+02  0.12500000000E+03  0.80419002446E+02 0. -1.
</event>
<event>
 4    1  0.1653896E-001  0.1250000E+03  0.7546771E-02  0.1126479E+00
        -11   -1    0    0    0    0  0.00000000000E+00  0.00000000000E+00  0.12500000000E+03  0.12500000000E+03  0.00000000000E+00 0.  1.
         11   -1    0    0    0    0 -0.00000000000E+00 -0.00000000000E+00 -0.12500000000E+03  0.12500000000E+03  0.00000000000E+00 0. -1.
         24    1    1    2    0    0  0.36146104799E+02  0.24588161868E+02  0.85127348422E+02  0.12500000000E+03  0.80419002446E+02 0.  1.
        -24    1    1    2    0    0 -0.36146104799E+02 -0.24588161868E+02 -0.85127348422E+02  0.12500000000E+03  0.80419002446E+02 0. -1.
</event>
<event>
 4    1  0.1653896E-001  0.1250000E+03  0.7546771E-02  0.1126479E+00
        -11   -1    0    0    0    0  0.00000000000E+00  0.00000000000E+00  0.12500000000E+03  0.12500000000E+03  0.00000000000E+00 0.  1.
         11   -1    0    0    0    0 -0.00000000000E+00 -0.00000000000E+00 -0.12500000000E+03  0.12500000000E+03  0.00000000000E+00 0. -1.
         24    1    1    2    0    0 -0.65722455417E+02 -0.42360312094E+01  0.69429092888E+02  0.12500000000E+03  0.80419002446E+02 0.  1.
        -24    1    1    2    0    0  0.65722455417E+02  0.42360312094E+01 -0.69429092888E+02  0.12500000000E+03  0.80419002446E+02 0. -1.
</event>
<event>
 4    1  0.1653896E-001  0.1250000E+03  0.7546771E-02  0.1126479E+00
        -11   -1    0    0    0    0  0.00000000000E+00  0.00000000000E+00  0.12500000000E+03  0.12500000000E+03  0.00000000000E+00 0.  1.
         11   -1    0    0    0    0 -0.00000000000E+00 -0.00000000000E+00 -0.12500000000E+03  0.12500000000E+03  0.00000000000E+00 0. -1.
         24    1    1    2    0    0 -0.12998620111E+02  0.71657249366E+02  0.62081064216E+02  0.12500000000E+03  0.80419002446E+02 0.  1.
        -24    1    1    2    0    0  0.12998620111E+02 -0.71657249366E+02 -0.62081064216E+02  0.12500000000E+03  0.80419002446E+02 0. -1.
</event>
<event>
 4    1  0.1653896E-001  0.1250000E+03  0.7546771E-02  0.1126479E+00
        -11   -1    0    0    0    0  0.00000000000E+00  0.00000000000E+00  0.12500000000E+03  0.12500000000E+03  0.00000000000E+00 0.  1.
         11   -1    0    0    0    0 -0.00000000000E+00 -0.00000000000E+00 -0.12500000000E+03  0.12500000000E+03  0.00000000000E+00 0. -1.
         24    1    1    2    0    0 -0.22244321020E+02  0.22614429268E+02  0.90286000116E+02  0.12500000000E+03  0.80419002446E+02 0.  0.
        -24    1    1    2    0    0  0.22244321020E+02 -0.22614429268E+02 -0.90286000116E+02  0.12500000000E+03  0.80419002446E+02 0. -1.
</event>
<event>
 4    1  0.1653896E-001  0.1250000E+03  0.7546771E-02  0.1126479E+00
        -11   -1    0    0    0    0  0.00000000000E+00  0.00000000000E+00  0.12500000000E+03  0.12500000000E+03  0.00000000000E+00 0.  1.
         11   -1    0    0    0    0 -0.00000000000E+00 -0.00000000000E+00 -0.12500000000E+03  0.12500000000E+03  0.00000000000E+00 0. -1.
         24    1    1    2    0    0 -0.58742490609E+02 -0.12201495440E+01  0.75535521960E+02  0.12500000000E+03  0.80419002446E+02 0.  1.
        -24    1    1    2    0    0  0.58742490609E+02  0.12201495440E+01 -0.75535521960E+02  0.12500000000E+03  0.80419002446E+02 0. -1.
</event>
<event>
 4    1  0.1653896E-001  0.1250000E+03  0.7546771E-02  0.1126479E+00
        -11   -1    0    0    0    0  0.00000000000E+00  0.00000000000E+00  0.12500000000E+03  0.12500000000E+03  0.00000000000E+00 0.  1.
         11   -1    0    0    0    0 -0.00000000000E+00 -0.00000000000E+00 -0.12500000000E+03  0.12500000000E+03  0.00000000000E+00 0. -1.
         24    1    1    2    0    0 -0.37061699873E+02 -0.21636970823E+02  0.85533946137E+02  0.12500000000E+03  0.80419002446E+02 0.  1.
        -24    1    1    2    0    0  0.37061699873E+02  0.21636970823E+02 -0.85533946137E+02  0.12500000000E+03  0.80419002446E+02 0. -1.
</event>
<event>
 4    1  0.1653896E-001  0.1250000E+03  0.7546771E-02  0.1126479E+00
        -11   -1    0    0    0    0  0.00000000000E+00  0.00000000000E+00  0.12500000000E+03  0.12500000000E+03  0.00000000000E+00 0.  1.
         11   -1    0    0    0    0 -0.00000000000E+00 -0.00000000000E+00 -0.12500000000E+03  0.12500000000E+03  0.00000000000E+00 0. -1.
         24    1    1    2    0    0 -0.83292424327E+01 -0.57126682380E+02  0.76321359569E+02  0.12500000000E+03  0.80419002446E+02 0.  1.
        -24    1    1    2    0    0  0.83292424327E+01  0.57126682380E+02 -0.76321359569E+02  0.12500000000E+03  0.80419002446E+02 0. -1.
</event>
<event>
 4    1  0.1653896E-001  0.1250000E+03  0.7546771E-02  0.1126479E+00
        -11   -1    0    0    0    0  0.00000000000E+00  0.00000000000E+00  0.12500000000E+03  0.12500000000E+03  0.00000000000E+00 0.  1.
         11   -1    0    0    0    0 -0.00000000000E+00 -0.00000000000E+00 -0.12500000000E+03  0.12500000000E+03  0.00000000000E+00 0. -1.
         24    1    1    2    0    0  0.40042448362E+02  0.24888575584E+01  0.86880331277E+02  0.12500000000E+03  0.80419002446E+02 0.  1.
        -24    1    1    2    0    0 -0.40042448362E+02 -0.24888575584E+01 -0.86880331277E+02  0.12500000000E+03  0.80419002446E+02 0. -1.
</event>
<event>
 4    1  0.1653896E-001  0.1250000E+03  0.7546771E-02  0.1126479E+00
        -11   -1    0    0    0    0  0.00000000000E+00  0.00000000000E+00  0.12500000000E+03  0.12500000000E+03  0.00000000000E+00 0.  1.
         11   -1    0    0    0    0 -0.00000000000E+00 -0.00000000000E+00 -0.12500000000E+03  0.12500000000E+03  0.00000000000E+00 0. -1.
         24    1    1    2    0    0 -0.50377206930E+02  0.21277716599E+01  0.81335070267E+02  0.12500000000E+03  0.80419002446E+02 0.  1.
        -24    1    1    2    0    0  0.50377206930E+02 -0.21277716599E+01 -0.81335070267E+02  0.12500000000E+03  0.80419002446E+02 0. -1.
</event>
<event>
 4    1  0.1653896E-001  0.1250000E+03  0.7546771E-02  0.1126479E+00
        -11   -1    0    0    0    0  0.00000000000E+00  0.00000000000E+00  0.12500000000E+03  0.12500000000E+03  0.00000000000E+00 0.  1.
         11   -1    0    0    0    0 -0.00000000000E+00 -0.00000000000E+00 -0.12500000000E+03  0.12500000000E+03  0.00000000000E+00 0. -1.
         24    1    1    2    0    0 -0.19052970030E+02 -0.37560880640E+02  0.85929905296E+02  0.12500000000E+03  0.80419002446E+02 0.  1.
        -24    1    1    2    0    0  0.19052970030E+02  0.37560880640E+02 -0.85929905296E+02  0.12500000000E+03  0.80419002446E+02 0. -1.
</event>
<event>
 4    1  0.1653896E-001  0.1250000E+03  0.7546771E-02  0.1126479E+00
        -11   -1    0    0    0    0  0.00000000000E+00  0.00000000000E+00  0.12500000000E+03  0.12500000000E+03  0.00000000000E+00 0.  1.
         11   -1    0    0    0    0 -0.00000000000E+00 -0.00000000000E+00 -0.12500000000E+03  0.12500000000E+03  0.00000000000E+00 0. -1.
         24    1    1    2    0    0  0.38087301482E+02  0.68956580295E+02 -0.54333521380E+02  0.12500000000E+03  0.80419002446E+02 0. -1.
        -24    1    1    2    0    0 -0.38087301482E+02 -0.68956580295E+02  0.54333521380E+02  0.12500000000E+03  0.80419002446E+02 0.  1.
</event>
<event>
 4    1  0.1653896E-001  0.1250000E+03  0.7546771E-02  0.1126479E+00
        -11   -1    0    0    0    0  0.00000000000E+00  0.00000000000E+00  0.12500000000E+03  0.12500000000E+03  0.00000000000E+00 0.  1.
         11   -1    0    0    0    0 -0.00000000000E+00 -0.00000000000E+00 -0.12500000000E+03  0.12500000000E+03  0.00000000000E+00 0. -1.
         24    1    1    2    0    0 -0.57076046776E+02  0.73952567387E+02  0.20763590896E+02  0.12500000000E+03  0.80419002446E+02 0. -1.
        -24    1    1    2    0    0  0.57076046776E+02 -0.73952567387E+02 -0.20763590896E+02  0.12500000000E+03  0.80419002446E+02 0.  1.
</event>
<event>
 4    1  0.1653896E-001  0.1250000E+03  0.7546771E-02  0.1126479E+00
        -11   -1    0    0    0    0  0.00000000000E+00  0.00000000000E+00  0.12500000000E+03  0.12500000000E+03  0.00000000000E+00 0.  1.
         11   -1    0    0    0    0 -0.00000000000E+00 -0.00000000000E+00 -0.12500000000E+03  0.12500000000E+03  0.00000000000E+00 0. -1.
         24    1    1    2    0    0  0.14651901947E+02 -0.22594300113E+02  0.91829207866E+02  0.12500000000E+03  0.80419002446E+02 0. -1.
        -24    1    1    2    0    0 -0.14651901947E+02  0.22594300113E+02 -0.91829207866E+02  0.12500000000E+03  0.80419002446E+02 0. -1.
</event>
<event>
 4    1  0.1653896E-001  0.1250000E+03  0.7546771E-02  0.1126479E+00
        -11   -1    0    0    0    0  0.00000000000E+00  0.00000000000E+00  0.12500000000E+03  0.12500000000E+03  0.00000000000E+00 0.  1.
         11   -1    0    0    0    0 -0.00000000000E+00 -0.00000000000E+00 -0.12500000000E+03  0.12500000000E+03  0.00000000000E+00 0. -1.
         24    1    1    2    0    0  0.18554822436E+02 -0.43610678288E+01  0.93778908596E+02  0.12500000000E+03  0.80419002446E+02 0.  1.
        -24    1    1    2    0    0 -0.18554822436E+02  0.43610678288E+01 -0.93778908596E+02  0.12500000000E+03  0.80419002446E+02 0. -1.
</event>
<event>
 4    1  0.1653896E-001  0.1250000E+03  0.7546771E-02  0.1126479E+00
        -11   -1    0    0    0    0  0.00000000000E+00  0.00000000000E+00  0.12500000000E+03  0.12500000000E+03  0.00000000000E+00 0.  1.
         11   -1    0    0    0    0 -0.00000000000E+00 -0.00000000000E+00 -0.12500000000E+03  0.12500000000E+03  0.00000000000E+00 0. -1.
         24    1    1    2    0    0  0.34860246623E+02  0.55542195801E+02  0.69696569044E+02  0.12500000000E+03  0.80419002446E+02 0.  1.
        -24    1    1    2    0    0 -0.34860246623E+02 -0.55542195801E+02 -0.69696569044E+02  0.12500000000E+03  0.80419002446E+02 0. -1.
</event>
<event>
 4    1  0.1653896E-001  0.1250000E+03  0.7546771E-02  0.1126479E+00
        -11   -1    0    0    0    0  0.00000000000E+00  0.00000000000E+00  0.12500000000E+03  0.12500000000E+03  0.00000000000E+00 0.  1.
         11   -1    0    0    0    0 -0.00000000000E+00 -0.00000000000E+00 -0.12500000000E+03  0.12500000000E+03  0.00000000000E+00 0. -1.
         24    1    1    2    0    0  0.48739409194E+02 -0.65824800560E+02  0.49490904904E+02  0.12500000000E+03  0.80419002446E+02 0.  1.
        -24    1    1    2    0    0 -0.48739409194E+02  0.65824800560E+02 -0.49490904904E+02  0.12500000000E+03  0.80419002446E+02 0. -1.
</event>
<event>
 4    1  0.1653896E-001  0.1250000E+03  0.7546771E-02  0.1126479E+00
        -11   -1    0    0    0    0  0.00000000000E+00  0.00000000000E+00  0.12500000000E+03  0.12500000000E+03  0.00000000000E+00 0.  1.
         11   -1    0    0    0    0 -0.00000000000E+00 -0.00000000000E+00 -0.12500000000E+03  0.12500000000E+03  0.00000000000E+00 0. -1.
         24    1    1    2    0    0  0.81919818585E+02 -0.27749158479E+02  0.40950110774E+02  0.12500000000E+03  0.80419002446E+02 0.  0.
        -24    1    1    2    0    0 -0.81919818585E+02  0.27749158479E+02 -0.40950110774E+02  0.12500000000E+03  0.80419002446E+02 0.  1.
</event>
<event>
 4    1  0.1653896E-001  0.1250000E+03  0.7546771E-02  0.1126479E+00
        -11   -1    0    0    0    0  0.00000000000E+00  0.00000000000E+00  0.12500000000E+03  0.12500000000E+03  0.00000000000E+00 0.  1.
         11   -1    0    0    0    0 -0.00000000000E+00 -0.00000000000E+00 -0.12500000000E+03  0.12500000000E+03  0.00000000000E+00 0. -1.
         24    1    1    2    0    0  0.34959313986E+02  0.11572522953E+02  0.88327272820E+02  0.12500000000E+03  0.80419002446E+02 0.  1.
        -24    1    1    2    0    0 -0.34959313986E+02 -0.11572522953E+02 -0.88327272820E+02  0.12500000000E+03  0.80419002446E+02 0. -1.
</event>
<event>
 4    1  0.1653896E-001  0.1250000E+03  0.7546771E-02  0.1126479E+00
        -11   -1    0    0    0    0  0.00000000000E+00  0.00000000000E+00  0.12500000000E+03  0.12500000000E+03  0.00000000000E+00 0.  1.
         11   -1    0    0    0    0 -0.00000000000E+00 -0.00000000000E+00 -0.12500000000E+03  0.12500000000E+03  0.00000000000E+00 0. -1.
         24    1    1    2    0    0 -0.25131135231E+01  0.20159725251E+02  0.93514992295E+02  0.12500000000E+03  0.80419002446E+02 0.  1.
        -24    1    1    2    0    0  0.25131135231E+01 -0.20159725251E+02 -0.93514992295E+02  0.12500000000E+03  0.80419002446E+02 0. -1.
</event>
<event>
 4    1  0.1653896E-001  0.1250000E+03  0.7546771E-02  0.1126479E+00
        -11   -1    0    0    0    0  0.00000000000E+00  0.00000000000E+00  0.12500000000E+03  0.12500000000E+03  0.00000000000E+00 0.  1.
         11   -1    0    0    0    0 -0.00000000000E+00 -0.00000000000E+00 -0.12500000000E+03  0.12500000000E+03  0.00000000000E+00 0. -1.
         24    1    1    2    0    0 -0.28559440338E+02 -0.21352352634E+02  0.88804388688E+02  0.12500000000E+03  0.80419002446E+02 0.  1.
        -24    1    1    2    0    0  0.28559440338E+02  0.21352352634E+02 -0.88804388688E+02  0.12500000000E+03  0.80419002446E+02 0. -1.
</event>
<event>
 4    1  0.1653896E-001  0.1250000E+03  0.7546771E-02  0.1126479E+00
        -11   -1    0    0    0    0  0.00000000000E+00  0.00000000000E+00  0.12500000000E+03  0.12500000000E+03  0.00000000000E+00 0.  1.
         11   -1    0    0    0    0 -0.00000000000E+00 -0.00000000000E+00 -0.12500000000E+03  0.12500000000E+03  0.00000000000E+00 0. -1.
         24    1    1    2    0    0 -0.33117941790E+02 -0.50975711394E+02  0.73908476003E+02  0.12500000000E+03  0.80419002446E+02 0.  1.
        -24    1    1    2    0    0  0.33117941790E+02  0.50975711394E+02 -0.73908476003E+02  0.12500000000E+03  0.80419002446E+02 0. -1.
</event>
<event>
 4    1  0.1653896E-001  0.1250000E+03  0.7546771E-02  0.1126479E+00
        -11   -1    0    0    0    0  0.00000000000E+00  0.00000000000E+00  0.12500000000E+03  0.12500000000E+03  0.00000000000E+00 0.  1.
         11   -1    0    0    0    0 -0.00000000000E+00 -0.00000000000E+00 -0.12500000000E+03  0.12500000000E+03  0.00000000000E+00 0. -1.
         24    1    1    2    0    0  0.20392193740E+02 -0.54516125492E+02  0.75960085186E+02  0.12500000000E+03  0.80419002446E+02 0.  1.
        -24    1    1    2    0    0 -0.20392193740E+02  0.54516125492E+02 -0.75960085186E+02  0.12500000000E+03  0.80419002446E+02 0. -1.
</event>
<event>
 4    1  0.1653896E-001  0.1250000E+03  0.7546771E-02  0.1126479E+00
        -11   -1    0    0    0    0  0.00000000000E+00  0.00000000000E+00  0.12500000000E+03  0.12500000000E+03  0.00000000000E+00 0.  1.
         11   -1    0    0    0    0 -0.00000000000E+00 -0.00000000000E+00 -0.12500000000E+03  0.12500000000E+03  0.00000000000E+00 0. -1.
         24    1    1    2    0    0 -0.20429732288E+02  0.88256696060E+02  0.30840974124E+02  0.12500000000E+03  0.80419002446E+02 0.  1.
        -24    1    1    2    0    0  0.20429732288E+02 -0.88256696060E+02 -0.30840974124E+02  0.12500000000E+03  0.80419002446E+02 0. -1.
</event>
<event>
 4    1  0.1653896E-001  0.1250000E+03  0.7546771E-02  0.1126479E+00
        -11   -1    0    0    0    0  0.00000000000E+00  0.00000000000E+00  0.12500000000E+03  0.12500000000E+03  0.00000000000E+00 0.  1.
         11   -1    0    0    0    0 -0.00000000000E+00 -0.00000000000E+00 -0.12500000000E+03  0.12500000000E+03  0.00000000000E+00 0. -1.
         24    1    1    2    0    0  0.37678146023E+02  0.54256341044E+01  0.87799224669E+02  0.12500000000E+03  0.80419002446E+02 0.  1.
        -24    1    1    2    0    0 -0.37678146023E+02 -0.54256341044E+01 -0.87799224669E+02  0.12500000000E+03  0.80419002446E+02 0. -1.
</event>
<event>
 4    1  0.1653896E-001  0.1250000E+03  0.7546771E-02  0.1126479E+00
        -11   -1    0    0    0    0  0.00000000000E+00  0.00000000000E+00  0.12500000000E+03  0.12500000000E+03  0.00000000000E+00 0.  1.
         11   -1    0    0    0    0 -0.00000000000E+00 -0.00000000000E+00 -0.12500000000E+03  0.12500000000E+03  0.00000000000E+00 0. -1.
         24    1    1    2    0    0  0.32631561673E+02 -0.41502847269E+02  0.79815279847E+02  0.12500000000E+03  0.80419002446E+02 0.  1.
        -24    1    1    2    0    0 -0.32631561673E+02  0.41502847269E+02 -0.79815279847E+02  0.12500000000E+03  0.80419002446E+02 0. -1.
</event>
<event>
 4    1  0.1653896E-001  0.1250000E+03  0.7546771E-02  0.1126479E+00
        -11   -1    0    0    0    0  0.00000000000E+00  0.00000000000E+00  0.12500000000E+03  0.12500000000E+03  0.00000000000E+00 0.  1.
         11   -1    0    0    0    0 -0.00000000000E+00 -0.00000000000E+00 -0.12500000000E+03  0.12500000000E+03  0.00000000000E+00 0. -1.
         24    1    1    2    0    0 -0.72375184663E+01 -0.26704662541E+02  0.91609297403E+02  0.12500000000E+03  0.80419002446E+02 0.  1.
        -24    1    1    2    0    0  0.72375184663E+01  0.26704662541E+02 -0.91609297403E+02  0.12500000000E+03  0.80419002446E+02 0. -1.
</event>
<event>
 4    1  0.1653896E-001  0.1250000E+03  0.7546771E-02  0.1126479E+00
        -11   -1    0    0    0    0  0.00000000000E+00  0.00000000000E+00  0.12500000000E+03  0.12500000000E+03  0.00000000000E+00 0.  1.
         11   -1    0    0    0    0 -0.00000000000E+00 -0.00000000000E+00 -0.12500000000E+03  0.12500000000E+03  0.00000000000E+00 0. -1.
         24    1    1    2    0    0 -0.47205747687E+02 -0.32692684249E+02  0.76554489271E+02  0.12500000000E+03  0.80419002446E+02 0.  1.
        -24    1    1    2    0    0  0.47205747687E+02  0.32692684249E+02 -0.76554489271E+02  0.12500000000E+03  0.80419002446E+02 0. -1.
</event>
<event>
 4    1  0.1653896E-001  0.1250000E+03  0.7546771E-02  0.1126479E+00
        -11   -1    0    0    0    0  0.00000000000E+00  0.00000000000E+00  0.12500000000E+03  0.12500000000E+03  0.00000000000E+00 0.  1.
         11   -1    0    0    0    0 -0.00000000000E+00 -0.00000000000E+00 -0.12500000000E+03  0.12500000000E+03  0.00000000000E+00 0. -1.
         24    1    1    2    0    0 -0.51482404338E+02  0.79913268735E+02  0.11009794243E+02  0.12500000000E+03  0.80419002446E+02 0.  1.
        -24    1    1    2    0    0  0.51482404338E+02 -0.79913268735E+02 -0.11009794243E+02  0.12500000000E+03  0.80419002446E+02 0. -1.
</event>
<event>
 4    1  0.1653896E-001  0.1250000E+03  0.7546771E-02  0.1126479E+00
        -11   -1    0    0    0    0  0.00000000000E+00  0.00000000000E+00  0.12500000000E+03  0.12500000000E+03  0.00000000000E+00 0.  1.
         11   -1    0    0    0    0 -0.00000000000E+00 -0.00000000000E+00 -0.12500000000E+03  0.12500000000E+03  0.00000000000E+00 0. -1.
         24    1    1    2    0    0  0.60403036938E+02 -0.49817553232E+02  0.55022436917E+02  0.12500000000E+03  0.80419002446E+02 0.  1.
        -24    1    1    2    0    0 -0.60403036938E+02  0.49817553232E+02 -0.55022436917E+02  0.12500000000E+03  0.80419002446E+02 0. -1.
</event>
<event>
 4    1  0.1653896E-001  0.1250000E+03  0.7546771E-02  0.1126479E+00
        -11   -1    0    0    0    0  0.00000000000E+00  0.00000000000E+00  0.12500000000E+03  0.12500000000E+03  0.00000000000E+00 0.  1.
         11   -1    0    0    0    0 -0.00000000000E+00 -0.00000000000E+00 -0.12500000000E+03  0.12500000000E+03  0.00000000000E+00 0. -1.
         24    1    1    2    0    0  0.81417778007E+01  0.75423732616E+02  0.58333147164E+02  0.12500000000E+03  0.80419002446E+02 0.  1.
        -24    1    1    2    0    0 -0.81417778007E+01 -0.75423732616E+02 -0.58333147164E+02  0.12500000000E+03  0.80419002446E+02 0. -1.
</event>
<event>
 4    1  0.1653896E-001  0.1250000E+03  0.7546771E-02  0.1126479E+00
        -11   -1    0    0    0    0  0.00000000000E+00  0.00000000000E+00  0.12500000000E+03  0.12500000000E+03  0.00000000000E+00 0.  1.
         11   -1    0    0    0    0 -0.00000000000E+00 -0.00000000000E+00 -0.12500000000E+03  0.12500000000E+03  0.00000000000E+00 0. -1.
         24    1    1    2    0    0  0.63731629119E+02 -0.12688133533E+02  0.70250087280E+02  0.12500000000E+03  0.80419002446E+02 0.  1.
        -24    1    1    2    0    0 -0.63731629119E+02  0.12688133533E+02 -0.70250087280E+02  0.12500000000E+03  0.80419002446E+02 0. -1.
</event>
<event>
 4    1  0.1653896E-001  0.1250000E+03  0.7546771E-02  0.1126479E+00
        -11   -1    0    0    0    0  0.00000000000E+00  0.00000000000E+00  0.12500000000E+03  0.12500000000E+03  0.00000000000E+00 0.  1.
         11   -1    0    0    0    0 -0.00000000000E+00 -0.00000000000E+00 -0.12500000000E+03  0.12500000000E+03  0.00000000000E+00 0. -1.
         24    1    1    2    0    0  0.41088957504E+02  0.31765722705E+02  0.80376740901E+02  0.12500000000E+03  0.80419002446E+02 0.  1.
        -24    1    1    2    0    0 -0.41088957504E+02 -0.31765722705E+02 -0.80376740901E+02  0.12500000000E+03  0.80419002446E+02 0. -1.
</event>
<event>
 4    1  0.1653896E-001  0.1250000E+03  0.7546771E-02  0.1126479E+00
        -11   -1    0    0    0    0  0.00000000000E+00  0.00000000000E+00  0.12500000000E+03  0.12500000000E+03  0.00000000000E+00 0.  1.
         11   -1    0    0    0    0 -0.00000000000E+00 -0.00000000000E+00 -0.12500000000E+03  0.12500000000E+03  0.00000000000E+00 0. -1.
         24    1    1    2    0    0 -0.41604788335E+02  0.77163529653E+02  0.38374670353E+02  0.12500000000E+03  0.80419002446E+02 0. -1.
        -24    1    1    2    0    0  0.41604788335E+02 -0.77163529653E+02 -0.38374670353E+02  0.12500000000E+03  0.80419002446E+02 0.  0.
</event>
<event>
 4    1  0.1653896E-001  0.1250000E+03  0.7546771E-02  0.1126479E+00
        -11   -1    0    0    0    0  0.00000000000E+00  0.00000000000E+00  0.12500000000E+03  0.12500000000E+03  0.00000000000E+00 0.  1.
         11   -1    0    0    0    0 -0.00000000000E+00 -0.00000000000E+00 -0.12500000000E+03  0.12500000000E+03  0.00000000000E+00 0. -1.
         24    1    1    2    0    0 -0.19349773392E+02  0.10424313387E+02  0.93138091057E+02  0.12500000000E+03  0.80419002446E+02 0.  0.
        -24    1    1    2    0    0  0.19349773392E+02 -0.10424313387E+02 -0.93138091057E+02  0.12500000000E+03  0.80419002446E+02 0. -1.
</event>
<event>
 4    1  0.1653896E-001  0.1250000E+03  0.7546771E-02  0.1126479E+00
        -11   -1    0    0    0    0  0.00000000000E+00  0.00000000000E+00  0.12500000000E+03  0.12500000000E+03  0.00000000000E+00 0.  1.
         11   -1    0    0    0    0 -0.00000000000E+00 -0.00000000000E+00 -0.12500000000E+03  0.12500000000E+03  0.00000000000E+00 0. -1.
         24    1    1    2    0    0 -0.31114357294E+02  0.31958947520E+02  0.84665851967E+02  0.12500000000E+03  0.80419002446E+02 0.  1.
        -24    1    1    2    0    0  0.31114357294E+02 -0.31958947520E+02 -0.84665851967E+02  0.12500000000E+03  0.80419002446E+02 0. -1.
</event>
<event>
 4    1  0.1653896E-001  0.1250000E+03  0.7546771E-02  0.1126479E+00
        -11   -1    0    0    0    0  0.00000000000E+00  0.00000000000E+00  0.12500000000E+03  0.12500000000E+03  0.00000000000E+00 0.  1.
         11   -1    0    0    0    0 -0.00000000000E+00 -0.00000000000E+00 -0.12500000000E+03  0.12500000000E+03  0.00000000000E+00 0. -1.
         24    1    1    2    0    0  0.62191971813E+02 -0.40283862594E+02  0.60557023557E+02  0.12500000000E+03  0.80419002446E+02 0.  1.
        -24    1    1    2    0    0 -0.62191971813E+02  0.40283862594E+02 -0.60557023557E+02  0.12500000000E+03  0.80419002446E+02 0. -1.
</event>
<event>
 4    1  0.1653896E-001  0.1250000E+03  0.7546771E-02  0.1126479E+00
        -11   -1    0    0    0    0  0.00000000000E+00  0.00000000000E+00  0.12500000000E+03  0.12500000000E+03  0.00000000000E+00 0.  1.
         11   -1    0    0    0    0 -0.00000000000E+00 -0.00000000000E+00 -0.12500000000E+03  0.12500000000E+03  0.00000000000E+00 0. -1.
         24    1    1    2    0    0 -0.28613961141E+02 -0.34310506845E+02  0.84627503765E+02  0.12500000000E+03  0.80419002446E+02 0.  1.
        -24    1    1    2    0    0  0.28613961141E+02  0.34310506845E+02 -0.84627503765E+02  0.12500000000E+03  0.80419002446E+02 0. -1.
</event>
<event>
 4    1  0.1653896E-001  0.1250000E+03  0.7546771E-02  0.1126479E+00
        -11   -1    0    0    0    0  0.00000000000E+00  0.00000000000E+00  0.12500000000E+03  0.12500000000E+03  0.00000000000E+00 0.  1.
         11   -1    0    0    0    0 -0.00000000000E+00 -0.00000000000E+00 -0.12500000000E+03  0.12500000000E+03  0.00000000000E+00 0. -1.
         24    1    1    2    0    0  0.86289085480E+02 -0.41348852161E+02  0.15000658654E+01  0.12500000000E+03  0.80419002446E+02 0. -1.
        -24    1    1    2    0    0 -0.86289085480E+02  0.41348852161E+02 -0.15000658654E+01  0.12500000000E+03  0.80419002446E+02 0.  1.
</event>
<event>
 4    1  0.1653896E-001  0.1250000E+03  0.7546771E-02  0.1126479E+00
        -11   -1    0    0    0    0  0.00000000000E+00  0.00000000000E+00  0.12500000000E+03  0.12500000000E+03  0.00000000000E+00 0.  1.
         11   -1    0    0    0    0 -0.00000000000E+00 -0.00000000000E+00 -0.12500000000E+03  0.12500000000E+03  0.00000000000E+00 0. -1.
         24    1    1    2    0    0 -0.21902465371E+02  0.24839572651E+02  0.89783415433E+02  0.12500000000E+03  0.80419002446E+02 0.  1.
        -24    1    1    2    0    0  0.21902465371E+02 -0.24839572651E+02 -0.89783415433E+02  0.12500000000E+03  0.80419002446E+02 0. -1.
</event>
<event>
 4    1  0.1653896E-001  0.1250000E+03  0.7546771E-02  0.1126479E+00
        -11   -1    0    0    0    0  0.00000000000E+00  0.00000000000E+00  0.12500000000E+03  0.12500000000E+03  0.00000000000E+00 0.  1.
         11   -1    0    0    0    0 -0.00000000000E+00 -0.00000000000E+00 -0.12500000000E+03  0.12500000000E+03  0.00000000000E+00 0. -1.
         24    1    1    2    0    0  0.67067693591E+01 -0.89767568848E+02  0.32474403359E+02  0.12500000000E+03  0.80419002446E+02 0.  0.
        -24    1    1    2    0    0 -0.67067693591E+01  0.89767568848E+02 -0.32474403359E+02  0.12500000000E+03  0.80419002446E+02 0.  1.
</event>
<event>
 4    1  0.1653896E-001  0.1250000E+03  0.7546771E-02  0.1126479E+00
        -11   -1    0    0    0    0  0.00000000000E+00  0.00000000000E+00  0.12500000000E+03  0.12500000000E+03  0.00000000000E+00 0.  1.
         11   -1    0    0    0    0 -0.00000000000E+00 -0.00000000000E+00 -0.12500000000E+03  0.12500000000E+03  0.00000000000E+00 0. -1.
         24    1    1    2    0    0  0.54156728247E+02 -0.22785599089E+02  0.75535748526E+02  0.12500000000E+03  0.80419002446E+02 0.  1.
        -24    1    1    2    0    0 -0.54156728247E+02  0.22785599089E+02 -0.75535748526E+02  0.12500000000E+03  0.80419002446E+02 0. -1.
</event>
<event>
 4    1  0.1653896E-001  0.1250000E+03  0.7546771E-02  0.1126479E+00
        -11   -1    0    0    0    0  0.00000000000E+00  0.00000000000E+00  0.12500000000E+03  0.12500000000E+03  0.00000000000E+00 0.  1.
         11   -1    0    0    0    0 -0.00000000000E+00 -0.00000000000E+00 -0.12500000000E+03  0.12500000000E+03  0.00000000000E+00 0. -1.
         24    1    1    2    0    0  0.86589864414E+00  0.14512559316E+02  0.94585516266E+02  0.12500000000E+03  0.80419002446E+02 0.  1.
        -24    1    1    2    0    0 -0.86589864414E+00 -0.14512559316E+02 -0.94585516266E+02  0.12500000000E+03  0.80419002446E+02 0. -1.
</event>
<event>
 4    1  0.1653896E-001  0.1250000E+03  0.7546771E-02  0.1126479E+00
        -11   -1    0    0    0    0  0.00000000000E+00  0.00000000000E+00  0.12500000000E+03  0.12500000000E+03  0.00000000000E+00 0.  1.
         11   -1    0    0    0    0 -0.00000000000E+00 -0.00000000000E+00 -0.12500000000E+03  0.12500000000E+03  0.00000000000E+00 0. -1.
         24    1    1    2    0    0 -0.47743011362E+02 -0.58696377360E+02  0.58592868137E+02  0.12500000000E+03  0.80419002446E+02 0.  1.
        -24    1    1    2    0    0  0.47743011362E+02  0.58696377360E+02 -0.58592868137E+02  0.12500000000E+03  0.80419002446E+02 0.  0.
</event>
<event>
 4    1  0.1653896E-001  0.1250000E+03  0.7546771E-02  0.1126479E+00
        -11   -1    0    0    0    0  0.00000000000E+00  0.00000000000E+00  0.12500000000E+03  0.12500000000E+03  0.00000000000E+00 0.  1.
         11   -1    0    0    0    0 -0.00000000000E+00 -0.00000000000E+00 -0.12500000000E+03  0.12500000000E+03  0.00000000000E+00 0. -1.
         24    1    1    2    0    0 -0.64415351400E+02 -0.41330274567E+02  0.57447845512E+02  0.12500000000E+03  0.80419002446E+02 0.  1.
        -24    1    1    2    0    0  0.64415351400E+02  0.41330274567E+02 -0.57447845512E+02  0.12500000000E+03  0.80419002446E+02 0. -1.
</event>
<event>
 4    1  0.1653896E-001  0.1250000E+03  0.7546771E-02  0.1126479E+00
        -11   -1    0    0    0    0  0.00000000000E+00  0.00000000000E+00  0.12500000000E+03  0.12500000000E+03  0.00000000000E+00 0.  1.
         11   -1    0    0    0    0 -0.00000000000E+00 -0.00000000000E+00 -0.12500000000E+03  0.12500000000E+03  0.00000000000E+00 0. -1.
         24    1    1    2    0    0 -0.25453360683E+02 -0.41772093322E+01  0.92154551693E+02  0.12500000000E+03  0.80419002446E+02 0.  1.
        -24    1    1    2    0    0  0.25453360683E+02  0.41772093322E+01 -0.92154551693E+02  0.12500000000E+03  0.80419002446E+02 0. -1.
</event>
<event>
 4    1  0.1653896E-001  0.1250000E+03  0.7546771E-02  0.1126479E+00
        -11   -1    0    0    0    0  0.00000000000E+00  0.00000000000E+00  0.12500000000E+03  0.12500000000E+03  0.00000000000E+00 0.  1.
         11   -1    0    0    0    0 -0.00000000000E+00 -0.00000000000E+00 -0.12500000000E+03  0.12500000000E+03  0.00000000000E+00 0. -1.
         24    1    1    2    0    0 -0.62431022567E+02 -0.51667715723E+02  0.50897923521E+02  0.12500000000E+03  0.80419002446E+02 0.  1.
        -24    1    1    2    0    0  0.62431022567E+02  0.51667715723E+02 -0.50897923521E+02  0.12500000000E+03  0.80419002446E+02 0. -1.
</event>
<event>
 4    1  0.1653896E-001  0.1250000E+03  0.7546771E-02  0.1126479E+00
        -11   -1    0    0    0    0  0.00000000000E+00  0.00000000000E+00  0.12500000000E+03  0.12500000000E+03  0.00000000000E+00 0.  1.
         11   -1    0    0    0    0 -0.00000000000E+00 -0.00000000000E+00 -0.12500000000E+03  0.12500000000E+03  0.00000000000E+00 0. -1.
         24    1    1    2    0    0  0.58864331079E+02  0.37579833284E+02 -0.65425764822E+02  0.12500000000E+03  0.80419002446E+02 0. -1.
        -24    1    1    2    0    0 -0.58864331079E+02 -0.37579833284E+02  0.65425764822E+02  0.12500000000E+03  0.80419002446E+02 0.  1.
</event>
<event>
 4    1  0.1653896E-001  0.1250000E+03  0.7546771E-02  0.1126479E+00
        -11   -1    0    0    0    0  0.00000000000E+00  0.00000000000E+00  0.12500000000E+03  0.12500000000E+03  0.00000000000E+00 0.  1.
         11   -1    0    0    0    0 -0.00000000000E+00 -0.00000000000E+00 -0.12500000000E+03  0.12500000000E+03  0.00000000000E+00 0. -1.
         24    1    1    2    0    0  0.55083616714E+02 -0.38616641525E+02  0.68061253387E+02  0.12500000000E+03  0.80419002446E+02 0.  1.
        -24    1    1    2    0    0 -0.55083616714E+02  0.38616641525E+02 -0.68061253387E+02  0.12500000000E+03  0.80419002446E+02 0.  0.
</event>
<event>
 4    1  0.1653896E-001  0.1250000E+03  0.7546771E-02  0.1126479E+00
        -11   -1    0    0    0    0  0.00000000000E+00  0.00000000000E+00  0.12500000000E+03  0.12500000000E+03  0.00000000000E+00 0.  1.
         11   -1    0    0    0    0 -0.00000000000E+00 -0.00000000000E+00 -0.12500000000E+03  0.12500000000E+03  0.00000000000E+00 0. -1.
         24    1    1    2    0    0  0.76754018972E+02  0.38270239586E+02  0.42449892571E+02  0.12500000000E+03  0.80419002446E+02 0. -1.
        -24    1    1    2    0    0 -0.76754018972E+02 -0.38270239586E+02 -0.42449892571E+02  0.12500000000E+03  0.80419002446E+02 0.  1.
</event>
<event>
 4    1  0.1653896E-001  0.1250000E+03  0.7546771E-02  0.1126479E+00
        -11   -1    0    0    0    0  0.00000000000E+00  0.00000000000E+00  0.12500000000E+03  0.12500000000E+03  0.00000000000E+00 0.  1.
         11   -1    0    0    0    0 -0.00000000000E+00 -0.00000000000E+00 -0.12500000000E+03  0.12500000000E+03  0.00000000000E+00 0. -1.
         24    1    1    2    0    0  0.69949879853E+02 -0.55829392326E+02  0.33880338054E+02  0.12500000000E+03  0.80419002446E+02 0.  1.
        -24    1    1    2    0    0 -0.69949879853E+02  0.55829392326E+02 -0.33880338054E+02  0.12500000000E+03  0.80419002446E+02 0. -1.
</event>
<event>
 4    1  0.1653896E-001  0.1250000E+03  0.7546771E-02  0.1126479E+00
        -11   -1    0    0    0    0  0.00000000000E+00  0.00000000000E+00  0.12500000000E+03  0.12500000000E+03  0.00000000000E+00 0.  1.
         11   -1    0    0    0    0 -0.00000000000E+00 -0.00000000000E+00 -0.12500000000E+03  0.12500000000E+03  0.00000000000E+00 0. -1.
         24    1    1    2    0    0 -0.10693138530E+01  0.43664796185E+02  0.85147085609E+02  0.12500000000E+03  0.80419002446E+02 0.  1.
        -24    1    1    2    0    0  0.10693138530E+01 -0.43664796185E+02 -0.85147085609E+02  0.12500000000E+03  0.80419002446E+02 0. -1.
</event>
<event>
 4    1  0.1653896E-001  0.1250000E+03  0.7546771E-02  0.1126479E+00
        -11   -1    0    0    0    0  0.00000000000E+00  0.00000000000E+00  0.12500000000E+03  0.12500000000E+03  0.00000000000E+00 0.  1.
         11   -1    0    0    0    0 -0.00000000000E+00 -0.00000000000E+00 -0.12500000000E+03  0.12500000000E+03  0.00000000000E+00 0. -1.
         24    1    1    2    0    0  0.37789742523E+02  0.18908034773E+02  0.85861549175E+02  0.12500000000E+03  0.80419002446E+02 0.  1.
        -24    1    1    2    0    0 -0.37789742523E+02 -0.18908034773E+02 -0.85861549175E+02  0.12500000000E+03  0.80419002446E+02 0. -1.
</event>
<event>
 4    1  0.1653896E-001  0.1250000E+03  0.7546771E-02  0.1126479E+00
        -11   -1    0    0    0    0  0.00000000000E+00  0.00000000000E+00  0.12500000000E+03  0.12500000000E+03  0.00000000000E+00 0.  1.
         11   -1    0    0    0    0 -0.00000000000E+00 -0.00000000000E+00 -0.12500000000E+03  0.12500000000E+03  0.00000000000E+00 0. -1.
         24    1    1    2    0    0  0.12179185257E+02  0.25207935289E+01  0.94884651510E+02  0.12500000000E+03  0.80419002446E+02 0.  0.
        -24    1    1    2    0    0 -0.12179185257E+02 -0.25207935289E+01 -0.94884651510E+02  0.12500000000E+03  0.80419002446E+02 0. -1.
</event>
<event>
 4    1  0.1653896E-001  0.1250000E+03  0.7546771E-02  0.1126479E+00
        -11   -1    0    0    0    0  0.00000000000E+00  0.00000000000E+00  0.12500000000E+03  0.12500000000E+03  0.00000000000E+00 0.  1.
         11   -1    0    0    0    0 -0.00000000000E+00 -0.00000000000E+00 -0.12500000000E+03  0.12500000000E+03  0.00000000000E+00 0. -1.
         24    1    1    2    0    0 -0.12049302103E+02 -0.20759429611E+02  0.92637165580E+02  0.12500000000E+03  0.80419002446E+02 0.  1.
        -24    1    1    2    0    0  0.12049302103E+02  0.20759429611E+02 -0.92637165580E+02  0.12500000000E+03  0.80419002446E+02 0. -1.
</event>
<event>
 4    1  0.1653896E-001  0.1250000E+03  0.7546771E-02  0.1126479E+00
        -11   -1    0    0    0    0  0.00000000000E+00  0.00000000000E+00  0.12500000000E+03  0.12500000000E+03  0.00000000000E+00 0.  1.
         11   -1    0    0    0    0 -0.00000000000E+00 -0.00000000000E+00 -0.12500000000E+03  0.12500000000E+03  0.00000000000E+00 0. -1.
         24    1    1    2    0    0 -0.46573391777E+02  0.13764589589E+02  0.82457499946E+02  0.12500000000E+03  0.80419002446E+02 0.  1.
        -24    1    1    2    0    0  0.46573391777E+02 -0.13764589589E+02 -0.82457499946E+02  0.12500000000E+03  0.80419002446E+02 0. -1.
</event>
<event>
 4    1  0.1653896E-001  0.1250000E+03  0.7546771E-02  0.1126479E+00
        -11   -1    0    0    0    0  0.00000000000E+00  0.00000000000E+00  0.12500000000E+03  0.12500000000E+03  0.00000000000E+00 0.  1.
         11   -1    0    0    0    0 -0.00000000000E+00 -0.00000000000E+00 -0.12500000000E+03  0.12500000000E+03  0.00000000000E+00 0. -1.
         24    1    1    2    0    0  0.90929006247E+02  0.20562568108E+02  0.21607421443E+02  0.12500000000E+03  0.80419002446E+02 0.  1.
        -24    1    1    2    0    0 -0.90929006247E+02 -0.20562568108E+02 -0.21607421443E+02  0.12500000000E+03  0.80419002446E+02 0. -1.
</event>
<event>
 4    1  0.1653896E-001  0.1250000E+03  0.7546771E-02  0.1126479E+00
        -11   -1    0    0    0    0  0.00000000000E+00  0.00000000000E+00  0.12500000000E+03  0.12500000000E+03  0.00000000000E+00 0.  1.
         11   -1    0    0    0    0 -0.00000000000E+00 -0.00000000000E+00 -0.12500000000E+03  0.12500000000E+03  0.00000000000E+00 0. -1.
         24    1    1    2    0    0 -0.32783352530E+02  0.49142570449E+02  0.75286410541E+02  0.12500000000E+03  0.80419002446E+02 0.  1.
        -24    1    1    2    0    0  0.32783352530E+02 -0.49142570449E+02 -0.75286410541E+02  0.12500000000E+03  0.80419002446E+02 0. -1.
</event>
<event>
 4    1  0.1653896E-001  0.1250000E+03  0.7546771E-02  0.1126479E+00
        -11   -1    0    0    0    0  0.00000000000E+00  0.00000000000E+00  0.12500000000E+03  0.12500000000E+03  0.00000000000E+00 0.  1.
         11   -1    0    0    0    0 -0.00000000000E+00 -0.00000000000E+00 -0.12500000000E+03  0.12500000000E+03  0.00000000000E+00 0. -1.
         24    1    1    2    0    0 -0.11412219005E+02  0.26510723109E+02  0.91239941162E+02  0.12500000000E+03  0.80419002446E+02 0.  1.
        -24    1    1    2    0    0  0.11412219005E+02 -0.26510723109E+02 -0.91239941162E+02  0.12500000000E+03  0.80419002446E+02 0. -1.
</event>
<event>
 4    1  0.1653896E-001  0.1250000E+03  0.7546771E-02  0.1126479E+00
        -11   -1    0    0    0    0  0.00000000000E+00  0.00000000000E+00  0.12500000000E+03  0.12500000000E+03  0.00000000000E+00 0.  1.
         11   -1    0    0    0    0 -0.00000000000E+00 -0.00000000000E+00 -0.12500000000E+03  0.12500000000E+03  0.00000000000E+00 0. -1.
         24    1    1    2    0    0  0.32216155967E+02 -0.39869405244E+02  0.80810481163E+02  0.12500000000E+03  0.80419002446E+02 0.  1.
        -24    1    1    2    0    0 -0.32216155967E+02  0.39869405244E+02 -0.80810481163E+02  0.12500000000E+03  0.80419002446E+02 0. -1.
</event>
<event>
 4    1  0.1653896E-001  0.1250000E+03  0.7546771E-02  0.1126479E+00
        -11   -1    0    0    0    0  0.00000000000E+00  0.00000000000E+00  0.12500000000E+03  0.12500000000E+03  0.00000000000E+00 0.  1.
         11   -1    0    0    0    0 -0.00000000000E+00 -0.00000000000E+00 -0.12500000000E+03  0.12500000000E+03  0.00000000000E+00 0. -1.
         24    1    1    2    0    0 -0.24529012516E+01  0.41589580163E+02  0.86151460481E+02  0.12500000000E+03  0.80419002446E+02 0.  0.
        -24    1    1    2    0    0  0.24529012516E+01 -0.41589580163E+02 -0.86151460481E+02  0.12500000000E+03  0.80419002446E+02 0.  0.
</event>
<event>
 4    1  0.1653896E-001  0.1250000E+03  0.7546771E-02  0.1126479E+00
        -11   -1    0    0    0    0  0.00000000000E+00  0.00000000000E+00  0.12500000000E+03  0.12500000000E+03  0.00000000000E+00 0.  1.
         11   -1    0    0    0    0 -0.00000000000E+00 -0.00000000000E+00 -0.12500000000E+03  0.12500000000E+03  0.00000000000E+00 0. -1.
         24    1    1    2    0    0  0.67978487170E+02  0.50554494710E+02  0.44507891349E+02  0.12500000000E+03  0.80419002446E+02 0.  1.
        -24    1    1    2    0    0 -0.67978487170E+02 -0.50554494710E+02 -0.44507891349E+02  0.12500000000E+03  0.80419002446E+02 0. -1.
</event>
<event>
 4    1  0.1653896E-001  0.1250000E+03  0.7546771E-02  0.1126479E+00
        -11   -1    0    0    0    0  0.00000000000E+00  0.00000000000E+00  0.12500000000E+03  0.12500000000E+03  0.00000000000E+00 0.  1.
         11   -1    0    0    0    0 -0.00000000000E+00 -0.00000000000E+00 -0.12500000000E+03  0.12500000000E+03  0.00000000000E+00 0. -1.
         24    1    1    2    0    0  0.46696520181E+01 -0.10250221526E+02  0.95031107298E+02  0.12500000000E+03  0.80419002446E+02 0.  1.
        -24    1    1    2    0    0 -0.46696520181E+01  0.10250221526E+02 -0.95031107298E+02  0.12500000000E+03  0.80419002446E+02 0. -1.
</event>
<event>
 4    1  0.1653896E-001  0.1250000E+03  0.7546771E-02  0.1126479E+00
        -11   -1    0    0    0    0  0.00000000000E+00  0.00000000000E+00  0.12500000000E+03  0.12500000000E+03  0.00000000000E+00 0.  1.
         11   -1    0    0    0    0 -0.00000000000E+00 -0.00000000000E+00 -0.12500000000E+03  0.12500000000E+03  0.00000000000E+00 0. -1.
         24    1    1    2    0    0  0.29342591801E+02 -0.17729573640E+02  0.89344605716E+02  0.12500000000E+03  0.80419002446E+02 0.  1.
        -24    1    1    2    0    0 -0.29342591801E+02  0.17729573640E+02 -0.89344605716E+02  0.12500000000E+03  0.80419002446E+02 0. -1.
</event>
<event>
 4    1  0.1653896E-001  0.1250000E+03  0.7546771E-02  0.1126479E+00
        -11   -1    0    0    0    0  0.00000000000E+00  0.00000000000E+00  0.12500000000E+03  0.12500000000E+03  0.00000000000E+00 0.  1.
         11   -1    0    0    0    0 -0.00000000000E+00 -0.00000000000E+00 -0.12500000000E+03  0.12500000000E+03  0.00000000000E+00 0. -1.
         24    1    1    2    0    0  0.11910665421E+02  0.40896773715E+02  0.85693488636E+02  0.12500000000E+03  0.80419002446E+02 0.  1.
        -24    1    1    2    0    0 -0.11910665421E+02 -0.40896773715E+02 -0.85693488636E+02  0.12500000000E+03  0.80419002446E+02 0. -1.
</event>
<event>
 4    1  0.1653896E-001  0.1250000E+03  0.7546771E-02  0.1126479E+00
        -11   -1    0    0    0    0  0.00000000000E+00  0.00000000000E+00  0.12500000000E+03  0.12500000000E+03  0.00000000000E+00 0.  1.
         11   -1    0    0    0    0 -0.00000000000E+00 -0.00000000000E+00 -0.12500000000E+03  0.12500000000E+03  0.00000000000E+00 0. -1.
         24    1    1    2    0    0  0.27419680733E+01  0.31765894386E+02  0.90228563163E+02  0.12500000000E+03  0.80419002446E+02 0.  1.
        -24    1    1    2    0    0 -0.27419680733E+01 -0.31765894386E+02 -0.90228563163E+02  0.12500000000E+03  0.80419002446E+02 0. -1.
</event>
<event>
 4    1  0.1653896E-001  0.1250000E+03  0.7546771E-02  0.1126479E+00
        -11   -1    0    0    0    0  0.00000000000E+00  0.00000000000E+00  0.12500000000E+03  0.12500000000E+03  0.00000000000E+00 0.  1.
         11   -1    0    0    0    0 -0.00000000000E+00 -0.00000000000E+00 -0.12500000000E+03  0.12500000000E+03  0.00000000000E+00 0. -1.
         24    1    1    2    0    0 -0.10502773254E+02 -0.12290439573E+02  0.94320840193E+02  0.12500000000E+03  0.80419002446E+02 0.  1.
        -24    1    1    2    0    0  0.10502773254E+02  0.12290439573E+02 -0.94320840193E+02  0.12500000000E+03  0.80419002446E+02 0. -1.
</event>
<event>
 4    1  0.1653896E-001  0.1250000E+03  0.7546771E-02  0.1126479E+00
        -11   -1    0    0    0    0  0.00000000000E+00  0.00000000000E+00  0.12500000000E+03  0.12500000000E+03  0.00000000000E+00 0.  1.
         11   -1    0    0    0    0 -0.00000000000E+00 -0.00000000000E+00 -0.12500000000E+03  0.12500000000E+03  0.00000000000E+00 0. -1.
         24    1    1    2    0    0  0.49424209561E+01 -0.92465357233E+02  0.24156039255E+02  0.12500000000E+03  0.80419002446E+02 0. -1.
        -24    1    1    2    0    0 -0.49424209561E+01  0.92465357233E+02 -0.24156039255E+02  0.12500000000E+03  0.80419002446E+02 0.  1.
</event>
<event>
 4    1  0.1653896E-001  0.1250000E+03  0.7546771E-02  0.1126479E+00
        -11   -1    0    0    0    0  0.00000000000E+00  0.00000000000E+00  0.12500000000E+03  0.12500000000E+03  0.00000000000E+00 0.  1.
         11   -1    0    0    0    0 -0.00000000000E+00 -0.00000000000E+00 -0.12500000000E+03  0.12500000000E+03  0.00000000000E+00 0. -1.
         24    1    1    2    0    0  0.40710815440E+02 -0.79022482959E+01  0.86243654976E+02  0.12500000000E+03  0.80419002446E+02 0.  1.
        -24    1    1    2    0    0 -0.40710815440E+02  0.79022482959E+01 -0.86243654976E+02  0.12500000000E+03  0.80419002446E+02 0. -1.
</event>
<event>
 4    1  0.1653896E-001  0.1250000E+03  0.7546771E-02  0.1126479E+00
        -11   -1    0    0    0    0  0.00000000000E+00  0.00000000000E+00  0.12500000000E+03  0.12500000000E+03  0.00000000000E+00 0.  1.
         11   -1    0    0    0    0 -0.00000000000E+00 -0.00000000000E+00 -0.12500000000E+03  0.12500000000E+03  0.00000000000E+00 0. -1.
         24    1    1    2    0    0 -0.36381194184E+02 -0.60017533869E+02  0.65054503178E+02  0.12500000000E+03  0.80419002446E+02 0.  1.
        -24    1    1    2    0    0  0.36381194184E+02  0.60017533869E+02 -0.65054503178E+02  0.12500000000E+03  0.80419002446E+02 0. -1.
</event>
<event>
 4    1  0.1653896E-001  0.1250000E+03  0.7546771E-02  0.1126479E+00
        -11   -1    0    0    0    0  0.00000000000E+00  0.00000000000E+00  0.12500000000E+03  0.12500000000E+03  0.00000000000E+00 0. -1.
         11   -1    0    0    0    0 -0.00000000000E+00 -0.00000000000E+00 -0.12500000000E+03  0.12500000000E+03  0.00000000000E+00 0.  1.
         24    1    1    2    0    0  0.25247058384E+02  0.77495844929E+02  0.50147423736E+02  0.12500000000E+03  0.80419002446E+02 0.  0.
        -24    1    1    2    0    0 -0.25247058384E+02 -0.77495844929E+02 -0.50147423736E+02  0.12500000000E+03  0.80419002446E+02 0.  0.
</event>
<event>
 4    1  0.1653896E-001  0.1250000E+03  0.7546771E-02  0.1126479E+00
        -11   -1    0    0    0    0  0.00000000000E+00  0.00000000000E+00  0.12500000000E+03  0.12500000000E+03  0.00000000000E+00 0.  1.
         11   -1    0    0    0    0 -0.00000000000E+00 -0.00000000000E+00 -0.12500000000E+03  0.12500000000E+03  0.00000000000E+00 0. -1.
         24    1    1    2    0    0  0.63291237860E+02 -0.35180120273E+02  0.62564865487E+02  0.12500000000E+03  0.80419002446E+02 0.  1.
        -24    1    1    2    0    0 -0.63291237860E+02  0.35180120273E+02 -0.62564865487E+02  0.12500000000E+03  0.80419002446E+02 0. -1.
</event>
<event>
 4    1  0.1653896E-001  0.1250000E+03  0.7546771E-02  0.1126479E+00
        -11   -1    0    0    0    0  0.00000000000E+00  0.00000000000E+00  0.12500000000E+03  0.12500000000E+03  0.00000000000E+00 0.  1.
         11   -1    0    0    0    0 -0.00000000000E+00 -0.00000000000E+00 -0.12500000000E+03  0.12500000000E+03  0.00000000000E+00 0. -1.
         24    1    1    2    0    0 -0.70028385744E+01 -0.12380724266E+02  0.94633302617E+02  0.12500000000E+03  0.80419002446E+02 0.  1.
        -24    1    1    2    0    0  0.70028385744E+01  0.12380724266E+02 -0.94633302617E+02  0.12500000000E+03  0.80419002446E+02 0. -1.
</event>
<event>
 4    1  0.1653896E-001  0.1250000E+03  0.7546771E-02  0.1126479E+00
        -11   -1    0    0    0    0  0.00000000000E+00  0.00000000000E+00  0.12500000000E+03  0.12500000000E+03  0.00000000000E+00 0.  1.
         11   -1    0    0    0    0 -0.00000000000E+00 -0.00000000000E+00 -0.12500000000E+03  0.12500000000E+03  0.00000000000E+00 0. -1.
         24    1    1    2    0    0 -0.79914844148E+02  0.35674837120E+02  0.38713146692E+02  0.12500000000E+03  0.80419002446E+02 0.  1.
        -24    1    1    2    0    0  0.79914844148E+02 -0.35674837120E+02 -0.38713146692E+02  0.12500000000E+03  0.80419002446E+02 0. -1.
</event>
<event>
 4    1  0.1653896E-001  0.1250000E+03  0.7546771E-02  0.1126479E+00
        -11   -1    0    0    0    0  0.00000000000E+00  0.00000000000E+00  0.12500000000E+03  0.12500000000E+03  0.00000000000E+00 0.  1.
         11   -1    0    0    0    0 -0.00000000000E+00 -0.00000000000E+00 -0.12500000000E+03  0.12500000000E+03  0.00000000000E+00 0. -1.
         24    1    1    2    0    0  0.78374621470E+02 -0.48007550327E+02  0.26654790687E+02  0.12500000000E+03  0.80419002446E+02 0.  0.
        -24    1    1    2    0    0 -0.78374621470E+02  0.48007550327E+02 -0.26654790687E+02  0.12500000000E+03  0.80419002446E+02 0. -1.
</event>
<event>
 4    1  0.1653896E-001  0.1250000E+03  0.7546771E-02  0.1126479E+00
        -11   -1    0    0    0    0  0.00000000000E+00  0.00000000000E+00  0.12500000000E+03  0.12500000000E+03  0.00000000000E+00 0.  1.
         11   -1    0    0    0    0 -0.00000000000E+00 -0.00000000000E+00 -0.12500000000E+03  0.12500000000E+03  0.00000000000E+00 0. -1.
         24    1    1    2    0    0  0.21373446104E+02  0.24500316050E+01  0.93246754326E+02  0.12500000000E+03  0.80419002446E+02 0.  1.
        -24    1    1    2    0    0 -0.21373446104E+02 -0.24500316050E+01 -0.93246754326E+02  0.12500000000E+03  0.80419002446E+02 0. -1.
</event>
<event>
 4    1  0.1653896E-001  0.1250000E+03  0.7546771E-02  0.1126479E+00
        -11   -1    0    0    0    0  0.00000000000E+00  0.00000000000E+00  0.12500000000E+03  0.12500000000E+03  0.00000000000E+00 0.  1.
         11   -1    0    0    0    0 -0.00000000000E+00 -0.00000000000E+00 -0.12500000000E+03  0.12500000000E+03  0.00000000000E+00 0. -1.
         24    1    1    2    0    0 -0.84747016529E+02  0.14481333820E+02  0.42024019391E+02  0.12500000000E+03  0.80419002446E+02 0.  0.
        -24    1    1    2    0    0  0.84747016529E+02 -0.14481333820E+02 -0.42024019391E+02  0.12500000000E+03  0.80419002446E+02 0. -1.
</event>
<event>
 4    1  0.1653896E-001  0.1250000E+03  0.7546771E-02  0.1126479E+00
        -11   -1    0    0    0    0  0.00000000000E+00  0.00000000000E+00  0.12500000000E+03  0.12500000000E+03  0.00000000000E+00 0.  1.
         11   -1    0    0    0    0 -0.00000000000E+00 -0.00000000000E+00 -0.12500000000E+03  0.12500000000E+03  0.00000000000E+00 0. -1.
         24    1    1    2    0    0 -0.30957325289E+02 -0.50182754283E+01  0.90411531169E+02  0.12500000000E+03  0.80419002446E+02 0.  0.
        -24    1    1    2    0    0  0.30957325289E+02  0.50182754283E+01 -0.90411531169E+02  0.12500000000E+03  0.80419002446E+02 0.  1.
</event>
<event>
 4    1  0.1653896E-001  0.1250000E+03  0.7546771E-02  0.1126479E+00
        -11   -1    0    0    0    0  0.00000000000E+00  0.00000000000E+00  0.12500000000E+03  0.12500000000E+03  0.00000000000E+00 0.  1.
         11   -1    0    0    0    0 -0.00000000000E+00 -0.00000000000E+00 -0.12500000000E+03  0.12500000000E+03  0.00000000000E+00 0. -1.
         24    1    1    2    0    0  0.10234007116E+02  0.56378332401E+02  0.76645500714E+02  0.12500000000E+03  0.80419002446E+02 0.  1.
        -24    1    1    2    0    0 -0.10234007116E+02 -0.56378332401E+02 -0.76645500714E+02  0.12500000000E+03  0.80419002446E+02 0. -1.
</event>
<event>
 4    1  0.1653896E-001  0.1250000E+03  0.7546771E-02  0.1126479E+00
        -11   -1    0    0    0    0  0.00000000000E+00  0.00000000000E+00  0.12500000000E+03  0.12500000000E+03  0.00000000000E+00 0.  1.
         11   -1    0    0    0    0 -0.00000000000E+00 -0.00000000000E+00 -0.12500000000E+03  0.12500000000E+03  0.00000000000E+00 0. -1.
         24    1    1    2    0    0 -0.27455955503E+02 -0.83399778192E+01  0.91292931397E+02  0.12500000000E+03  0.80419002446E+02 0.  1.
        -24    1    1    2    0    0  0.27455955503E+02  0.83399778192E+01 -0.91292931397E+02  0.12500000000E+03  0.80419002446E+02 0. -1.
</event>
<event>
 4    1  0.1653896E-001  0.1250000E+03  0.7546771E-02  0.1126479E+00
        -11   -1    0    0    0    0  0.00000000000E+00  0.00000000000E+00  0.12500000000E+03  0.12500000000E+03  0.00000000000E+00 0.  1.
         11   -1    0    0    0    0 -0.00000000000E+00 -0.00000000000E+00 -0.12500000000E+03  0.12500000000E+03  0.00000000000E+00 0. -1.
         24    1    1    2    0    0  0.93980816175E+02  0.16274084255E+02  0.77810293902E+01  0.12500000000E+03  0.80419002446E+02 0.  0.
        -24    1    1    2    0    0 -0.93980816175E+02 -0.16274084255E+02 -0.77810293902E+01  0.12500000000E+03  0.80419002446E+02 0.  0.
</event>
<event>
 4    1  0.1653896E-001  0.1250000E+03  0.7546771E-02  0.1126479E+00
        -11   -1    0    0    0    0  0.00000000000E+00  0.00000000000E+00  0.12500000000E+03  0.12500000000E+03  0.00000000000E+00 0.  1.
         11   -1    0    0    0    0 -0.00000000000E+00 -0.00000000000E+00 -0.12500000000E+03  0.12500000000E+03  0.00000000000E+00 0. -1.
         24    1    1    2    0    0  0.93686477522E+01  0.41240489774E+02  0.85844245516E+02  0.12500000000E+03  0.80419002446E+02 0.  1.
        -24    1    1    2    0    0 -0.93686477522E+01 -0.41240489774E+02 -0.85844245516E+02  0.12500000000E+03  0.80419002446E+02 0. -1.
</event>
<event>
 4    1  0.1653896E-001  0.1250000E+03  0.7546771E-02  0.1126479E+00
        -11   -1    0    0    0    0  0.00000000000E+00  0.00000000000E+00  0.12500000000E+03  0.12500000000E+03  0.00000000000E+00 0.  1.
         11   -1    0    0    0    0 -0.00000000000E+00 -0.00000000000E+00 -0.12500000000E+03  0.12500000000E+03  0.00000000000E+00 0. -1.
         24    1    1    2    0    0 -0.48155035454E+02  0.82683372423E+02 -0.15285714834E+01  0.12500000000E+03  0.80419002446E+02 0. -1.
        -24    1    1    2    0    0  0.48155035454E+02 -0.82683372423E+02  0.15285714834E+01  0.12500000000E+03  0.80419002446E+02 0.  0.
</event>
<event>
 4    1  0.1653896E-001  0.1250000E+03  0.7546771E-02  0.1126479E+00
        -11   -1    0    0    0    0  0.00000000000E+00  0.00000000000E+00  0.12500000000E+03  0.12500000000E+03  0.00000000000E+00 0.  1.
         11   -1    0    0    0    0 -0.00000000000E+00 -0.00000000000E+00 -0.12500000000E+03  0.12500000000E+03  0.00000000000E+00 0. -1.
         24    1    1    2    0    0 -0.61058963036E+00  0.16428221297E+02  0.94273669553E+02  0.12500000000E+03  0.80419002446E+02 0.  1.
        -24    1    1    2    0    0  0.61058963036E+00 -0.16428221297E+02 -0.94273669553E+02  0.12500000000E+03  0.80419002446E+02 0.  0.
</event>
<event>
 4    1  0.1653896E-001  0.1250000E+03  0.7546771E-02  0.1126479E+00
        -11   -1    0    0    0    0  0.00000000000E+00  0.00000000000E+00  0.12500000000E+03  0.12500000000E+03  0.00000000000E+00 0.  1.
         11   -1    0    0    0    0 -0.00000000000E+00 -0.00000000000E+00 -0.12500000000E+03  0.12500000000E+03  0.00000000000E+00 0. -1.
         24    1    1    2    0    0 -0.89108502456E+02  0.78065989665E+01  0.34007585158E+02  0.12500000000E+03  0.80419002446E+02 0.  1.
        -24    1    1    2    0    0  0.89108502456E+02 -0.78065989665E+01 -0.34007585158E+02  0.12500000000E+03  0.80419002446E+02 0. -1.
</event>
<event>
 4    1  0.1653896E-001  0.1250000E+03  0.7546771E-02  0.1126479E+00
        -11   -1    0    0    0    0  0.00000000000E+00  0.00000000000E+00  0.12500000000E+03  0.12500000000E+03  0.00000000000E+00 0.  1.
         11   -1    0    0    0    0 -0.00000000000E+00 -0.00000000000E+00 -0.12500000000E+03  0.12500000000E+03  0.00000000000E+00 0. -1.
         24    1    1    2    0    0  0.20410487426E+02  0.83419410124E+02  0.42218456428E+02  0.12500000000E+03  0.80419002446E+02 0. -1.
        -24    1    1    2    0    0 -0.20410487426E+02 -0.83419410124E+02 -0.42218456428E+02  0.12500000000E+03  0.80419002446E+02 0.  1.
</event>
<event>
 4    1  0.1653896E-001  0.1250000E+03  0.7546771E-02  0.1126479E+00
        -11   -1    0    0    0    0  0.00000000000E+00  0.00000000000E+00  0.12500000000E+03  0.12500000000E+03  0.00000000000E+00 0.  1.
         11   -1    0    0    0    0 -0.00000000000E+00 -0.00000000000E+00 -0.12500000000E+03  0.12500000000E+03  0.00000000000E+00 0. -1.
         24    1    1    2    0    0 -0.23609712671E+02  0.92719853464E+02  0.18423590522E+01  0.12500000000E+03  0.80419002446E+02 0.  1.
        -24    1    1    2    0    0  0.23609712671E+02 -0.92719853464E+02 -0.18423590522E+01  0.12500000000E+03  0.80419002446E+02 0. -1.
</event>
<event>
 4    1  0.1653896E-001  0.1250000E+03  0.7546771E-02  0.1126479E+00
        -11   -1    0    0    0    0  0.00000000000E+00  0.00000000000E+00  0.12500000000E+03  0.12500000000E+03  0.00000000000E+00 0.  1.
         11   -1    0    0    0    0 -0.00000000000E+00 -0.00000000000E+00 -0.12500000000E+03  0.12500000000E+03  0.00000000000E+00 0. -1.
         24    1    1    2    0    0  0.48602889271E+01  0.53413891360E+02  0.79253503689E+02  0.12500000000E+03  0.80419002446E+02 0.  1.
        -24    1    1    2    0    0 -0.48602889271E+01 -0.53413891360E+02 -0.79253503689E+02  0.12500000000E+03  0.80419002446E+02 0. -1.
</event>
<event>
 4    1  0.1653896E-001  0.1250000E+03  0.7546771E-02  0.1126479E+00
        -11   -1    0    0    0    0  0.00000000000E+00  0.00000000000E+00  0.12500000000E+03  0.12500000000E+03  0.00000000000E+00 0.  1.
         11   -1    0    0    0    0 -0.00000000000E+00 -0.00000000000E+00 -0.12500000000E+03  0.12500000000E+03  0.00000000000E+00 0. -1.
         24    1    1    2    0    0 -0.43563355046E+01  0.14919105892E+02  0.94425773314E+02  0.12500000000E+03  0.80419002446E+02 0.  1.
        -24    1    1    2    0    0  0.43563355046E+01 -0.14919105892E+02 -0.94425773314E+02  0.12500000000E+03  0.80419002446E+02 0. -1.
</event>
<event>
 4    1  0.1653896E-001  0.1250000E+03  0.7546771E-02  0.1126479E+00
        -11   -1    0    0    0    0  0.00000000000E+00  0.00000000000E+00  0.12500000000E+03  0.12500000000E+03  0.00000000000E+00 0.  1.
         11   -1    0    0    0    0 -0.00000000000E+00 -0.00000000000E+00 -0.12500000000E+03  0.12500000000E+03  0.00000000000E+00 0. -1.
         24    1    1    2    0    0 -0.25480698240E+01  0.82315145663E+02  0.48739185265E+02  0.12500000000E+03  0.80419002446E+02 0.  1.
        -24    1    1    2    0    0  0.25480698240E+01 -0.82315145663E+02 -0.48739185265E+02  0.12500000000E+03  0.80419002446E+02 0. -1.
</event>
<event>
 4    1  0.1653896E-001  0.1250000E+03  0.7546771E-02  0.1126479E+00
        -11   -1    0    0    0    0  0.00000000000E+00  0.00000000000E+00  0.12500000000E+03  0.12500000000E+03  0.00000000000E+00 0.  1.
         11   -1    0    0    0    0 -0.00000000000E+00 -0.00000000000E+00 -0.12500000000E+03  0.12500000000E+03  0.00000000000E+00 0. -1.
         24    1    1    2    0    0 -0.43448040115E+02  0.12115008448E+02  0.84399516741E+02  0.12500000000E+03  0.80419002446E+02 0.  1.
        -24    1    1    2    0    0  0.43448040115E+02 -0.12115008448E+02 -0.84399516741E+02  0.12500000000E+03  0.80419002446E+02 0. -1.
</event>
<event>
 4    1  0.1653896E-001  0.1250000E+03  0.7546771E-02  0.1126479E+00
        -11   -1    0    0    0    0  0.00000000000E+00  0.00000000000E+00  0.12500000000E+03  0.12500000000E+03  0.00000000000E+00 0.  1.
         11   -1    0    0    0    0 -0.00000000000E+00 -0.00000000000E+00 -0.12500000000E+03  0.12500000000E+03  0.00000000000E+00 0. -1.
         24    1    1    2    0    0 -0.66054746994E+02 -0.30892906292E+01  0.69173771970E+02  0.12500000000E+03  0.80419002446E+02 0.  1.
        -24    1    1    2    0    0  0.66054746994E+02  0.30892906292E+01 -0.69173771970E+02  0.12500000000E+03  0.80419002446E+02 0. -1.
</event>
<event>
 4    1  0.1653896E-001  0.1250000E+03  0.7546771E-02  0.1126479E+00
        -11   -1    0    0    0    0  0.00000000000E+00  0.00000000000E+00  0.12500000000E+03  0.12500000000E+03  0.00000000000E+00 0.  1.
         11   -1    0    0    0    0 -0.00000000000E+00 -0.00000000000E+00 -0.12500000000E+03  0.12500000000E+03  0.00000000000E+00 0. -1.
         24    1    1    2    0    0  0.13363218252E+02 -0.87571315320E+02  0.36200458239E+02  0.12500000000E+03  0.80419002446E+02 0.  1.
        -24    1    1    2    0    0 -0.13363218252E+02  0.87571315320E+02 -0.36200458239E+02  0.12500000000E+03  0.80419002446E+02 0. -1.
</event>
<event>
 4    1  0.1653896E-001  0.1250000E+03  0.7546771E-02  0.1126479E+00
        -11   -1    0    0    0    0  0.00000000000E+00  0.00000000000E+00  0.12500000000E+03  0.12500000000E+03  0.00000000000E+00 0.  1.
         11   -1    0    0    0    0 -0.00000000000E+00 -0.00000000000E+00 -0.12500000000E+03  0.12500000000E+03  0.00000000000E+00 0. -1.
         24    1    1    2    0    0 -0.23179088739E+02  0.52675197776E+02  0.76458076291E+02  0.12500000000E+03  0.80419002446E+02 0.  1.
        -24    1    1    2    0    0  0.23179088739E+02 -0.52675197776E+02 -0.76458076291E+02  0.12500000000E+03  0.80419002446E+02 0. -1.
</event>
<event>
 4    1  0.1653896E-001  0.1250000E+03  0.7546771E-02  0.1126479E+00
        -11   -1    0    0    0    0  0.00000000000E+00  0.00000000000E+00  0.12500000000E+03  0.12500000000E+03  0.00000000000E+00 0.  1.
         11   -1    0    0    0    0 -0.00000000000E+00 -0.00000000000E+00 -0.12500000000E+03  0.12500000000E+03  0.00000000000E+00 0. -1.
         24    1    1    2    0    0  0.51776910505E+02 -0.28894237293E+02  0.75113638145E+02  0.12500000000E+03  0.80419002446E+02 0.  1.
        -24    1    1    2    0    0 -0.51776910505E+02  0.28894237293E+02 -0.75113638145E+02  0.12500000000E+03  0.80419002446E+02 0. -1.
</event>
<event>
 4    1  0.1653896E-001  0.1250000E+03  0.7546771E-02  0.1126479E+00
        -11   -1    0    0    0    0  0.00000000000E+00  0.00000000000E+00  0.12500000000E+03  0.12500000000E+03  0.00000000000E+00 0.  1.
         11   -1    0    0    0    0 -0.00000000000E+00 -0.00000000000E+00 -0.12500000000E+03  0.12500000000E+03  0.00000000000E+00 0. -1.
         24    1    1    2    0    0 -0.22529508388E+02  0.13693279973E+02  0.91992931147E+02  0.12500000000E+03  0.80419002446E+02 0.  1.
        -24    1    1    2    0    0  0.22529508388E+02 -0.13693279973E+02 -0.91992931147E+02  0.12500000000E+03  0.80419002446E+02 0. -1.
</event>
<event>
 4    1  0.1653896E-001  0.1250000E+03  0.7546771E-02  0.1126479E+00
        -11   -1    0    0    0    0  0.00000000000E+00  0.00000000000E+00  0.12500000000E+03  0.12500000000E+03  0.00000000000E+00 0.  1.
         11   -1    0    0    0    0 -0.00000000000E+00 -0.00000000000E+00 -0.12500000000E+03  0.12500000000E+03  0.00000000000E+00 0. -1.
         24    1    1    2    0    0 -0.39949317192E+02  0.55829199492E+02  0.66670357623E+02  0.12500000000E+03  0.80419002446E+02 0.  1.
        -24    1    1    2    0    0  0.39949317192E+02 -0.55829199492E+02 -0.66670357623E+02  0.12500000000E+03  0.80419002446E+02 0. -1.
</event>
<event>
 4    1  0.1653896E-001  0.1250000E+03  0.7546771E-02  0.1126479E+00
        -11   -1    0    0    0    0  0.00000000000E+00  0.00000000000E+00  0.12500000000E+03  0.12500000000E+03  0.00000000000E+00 0.  1.
         11   -1    0    0    0    0 -0.00000000000E+00 -0.00000000000E+00 -0.12500000000E+03  0.12500000000E+03  0.00000000000E+00 0. -1.
         24    1    1    2    0    0 -0.68558069442E+01 -0.63294064707E+02  0.71446786699E+02  0.12500000000E+03  0.80419002446E+02 0.  1.
        -24    1    1    2    0    0  0.68558069442E+01  0.63294064707E+02 -0.71446786699E+02  0.12500000000E+03  0.80419002446E+02 0. -1.
</event>
<event>
 4    1  0.1653896E-001  0.1250000E+03  0.7546771E-02  0.1126479E+00
        -11   -1    0    0    0    0  0.00000000000E+00  0.00000000000E+00  0.12500000000E+03  0.12500000000E+03  0.00000000000E+00 0.  1.
         11   -1    0    0    0    0 -0.00000000000E+00 -0.00000000000E+00 -0.12500000000E+03  0.12500000000E+03  0.00000000000E+00 0. -1.
         24    1    1    2    0    0  0.18739890017E+02  0.22856205912E+02  0.91017550061E+02  0.12500000000E+03  0.80419002446E+02 0.  1.
        -24    1    1    2    0    0 -0.18739890017E+02 -0.22856205912E+02 -0.91017550061E+02  0.12500000000E+03  0.80419002446E+02 0. -1.
</event>
<event>
 4    1  0.1653896E-001  0.1250000E+03  0.7546771E-02  0.1126479E+00
        -11   -1    0    0    0    0  0.00000000000E+00  0.00000000000E+00  0.12500000000E+03  0.12500000000E+03  0.00000000000E+00 0.  1.
         11   -1    0    0    0    0 -0.00000000000E+00 -0.00000000000E+00 -0.12500000000E+03  0.12500000000E+03  0.00000000000E+00 0. -1.
         24    1    1    2    0    0 -0.97881941075E+01 -0.19034810541E+02  0.93271921227E+02  0.12500000000E+03  0.80419002446E+02 0.  1.
        -24    1    1    2    0    0  0.97881941075E+01  0.19034810541E+02 -0.93271921227E+02  0.12500000000E+03  0.80419002446E+02 0. -1.
</event>
<event>
 4    1  0.1653896E-001  0.1250000E+03  0.7546771E-02  0.1126479E+00
        -11   -1    0    0    0    0  0.00000000000E+00  0.00000000000E+00  0.12500000000E+03  0.12500000000E+03  0.00000000000E+00 0.  1.
         11   -1    0    0    0    0 -0.00000000000E+00 -0.00000000000E+00 -0.12500000000E+03  0.12500000000E+03  0.00000000000E+00 0. -1.
         24    1    1    2    0    0  0.26149980181E+02 -0.44299428204E+01  0.91947475163E+02  0.12500000000E+03  0.80419002446E+02 0.  1.
        -24    1    1    2    0    0 -0.26149980181E+02  0.44299428204E+01 -0.91947475163E+02  0.12500000000E+03  0.80419002446E+02 0. -1.
</event>
<event>
 4    1  0.1653896E-001  0.1250000E+03  0.7546771E-02  0.1126479E+00
        -11   -1    0    0    0    0  0.00000000000E+00  0.00000000000E+00  0.12500000000E+03  0.12500000000E+03  0.00000000000E+00 0.  1.
         11   -1    0    0    0    0 -0.00000000000E+00 -0.00000000000E+00 -0.12500000000E+03  0.12500000000E+03  0.00000000000E+00 0. -1.
         24    1    1    2    0    0 -0.26064816587E+02 -0.17515831724E+02  0.90396930374E+02  0.12500000000E+03  0.80419002446E+02 0.  1.
        -24    1    1    2    0    0  0.26064816587E+02  0.17515831724E+02 -0.90396930374E+02  0.12500000000E+03  0.80419002446E+02 0. -1.
</event>
<event>
 4    1  0.1653896E-001  0.1250000E+03  0.7546771E-02  0.1126479E+00
        -11   -1    0    0    0    0  0.00000000000E+00  0.00000000000E+00  0.12500000000E+03  0.12500000000E+03  0.00000000000E+00 0.  1.
         11   -1    0    0    0    0 -0.00000000000E+00 -0.00000000000E+00 -0.12500000000E+03  0.12500000000E+03  0.00000000000E+00 0. -1.
         24    1    1    2    0    0  0.17397948857E+02  0.65303432476E+02  0.67753650293E+02  0.12500000000E+03  0.80419002446E+02 0.  1.
        -24    1    1    2    0    0 -0.17397948857E+02 -0.65303432476E+02 -0.67753650293E+02  0.12500000000E+03  0.80419002446E+02 0. -1.
</event>
<event>
 4    1  0.1653896E-001  0.1250000E+03  0.7546771E-02  0.1126479E+00
        -11   -1    0    0    0    0  0.00000000000E+00  0.00000000000E+00  0.12500000000E+03  0.12500000000E+03  0.00000000000E+00 0.  1.
         11   -1    0    0    0    0 -0.00000000000E+00 -0.00000000000E+00 -0.12500000000E+03  0.12500000000E+03  0.00000000000E+00 0. -1.
         24    1    1    2    0    0 -0.41306019187E+02 -0.41640806750E+02  0.75615078111E+02  0.12500000000E+03  0.80419002446E+02 0.  1.
        -24    1    1    2    0    0  0.41306019187E+02  0.41640806750E+02 -0.75615078111E+02  0.12500000000E+03  0.80419002446E+02 0. -1.
</event>
<event>
 4    1  0.1653896E-001  0.1250000E+03  0.7546771E-02  0.1126479E+00
        -11   -1    0    0    0    0  0.00000000000E+00  0.00000000000E+00  0.12500000000E+03  0.12500000000E+03  0.00000000000E+00 0.  1.
         11   -1    0    0    0    0 -0.00000000000E+00 -0.00000000000E+00 -0.12500000000E+03  0.12500000000E+03  0.00000000000E+00 0. -1.
         24    1    1    2    0    0  0.19566093708E+02 -0.86197967350E+02  0.36672366263E+02  0.12500000000E+03  0.80419002446E+02 0.  1.
        -24    1    1    2    0    0 -0.19566093708E+02  0.86197967350E+02 -0.36672366263E+02  0.12500000000E+03  0.80419002446E+02 0. -1.
</event>
<event>
 4    1  0.1653896E-001  0.1250000E+03  0.7546771E-02  0.1126479E+00
        -11   -1    0    0    0    0  0.00000000000E+00  0.00000000000E+00  0.12500000000E+03  0.12500000000E+03  0.00000000000E+00 0.  1.
         11   -1    0    0    0    0 -0.00000000000E+00 -0.00000000000E+00 -0.12500000000E+03  0.12500000000E+03  0.00000000000E+00 0. -1.
         24    1    1    2    0    0 -0.52846994173E+02 -0.53105658272E+02  0.59537956901E+02  0.12500000000E+03  0.80419002446E+02 0.  1.
        -24    1    1    2    0    0  0.52846994173E+02  0.53105658272E+02 -0.59537956901E+02  0.12500000000E+03  0.80419002446E+02 0. -1.
</event>
<event>
 4    1  0.1653896E-001  0.1250000E+03  0.7546771E-02  0.1126479E+00
        -11   -1    0    0    0    0  0.00000000000E+00  0.00000000000E+00  0.12500000000E+03  0.12500000000E+03  0.00000000000E+00 0.  1.
         11   -1    0    0    0    0 -0.00000000000E+00 -0.00000000000E+00 -0.12500000000E+03  0.12500000000E+03  0.00000000000E+00 0. -1.
         24    1    1    2    0    0  0.21997705012E+02  0.27756074275E+01  0.93092325265E+02  0.12500000000E+03  0.80419002446E+02 0.  1.
        -24    1    1    2    0    0 -0.21997705012E+02 -0.27756074275E+01 -0.93092325265E+02  0.12500000000E+03  0.80419002446E+02 0. -1.
</event>
<event>
 4    1  0.1653896E-001  0.1250000E+03  0.7546771E-02  0.1126479E+00
        -11   -1    0    0    0    0  0.00000000000E+00  0.00000000000E+00  0.12500000000E+03  0.12500000000E+03  0.00000000000E+00 0.  1.
         11   -1    0    0    0    0 -0.00000000000E+00 -0.00000000000E+00 -0.12500000000E+03  0.12500000000E+03  0.00000000000E+00 0. -1.
         24    1    1    2    0    0  0.21805591808E+02 -0.43558637412E+02  0.82370779517E+02  0.12500000000E+03  0.80419002446E+02 0.  1.
        -24    1    1    2    0    0 -0.21805591808E+02  0.43558637412E+02 -0.82370779517E+02  0.12500000000E+03  0.80419002446E+02 0. -1.
</event>
<event>
 4    1  0.1653896E-001  0.1250000E+03  0.7546771E-02  0.1126479E+00
        -11   -1    0    0    0    0  0.00000000000E+00  0.00000000000E+00  0.12500000000E+03  0.12500000000E+03  0.00000000000E+00 0.  1.
         11   -1    0    0    0    0 -0.00000000000E+00 -0.00000000000E+00 -0.12500000000E+03  0.12500000000E+03  0.00000000000E+00 0. -1.
         24    1    1    2    0    0 -0.23017084035E+02  0.98557157721E+01  0.92362669703E+02  0.12500000000E+03  0.80419002446E+02 0.  1.
        -24    1    1    2    0    0  0.23017084035E+02 -0.98557157721E+01 -0.92362669703E+02  0.12500000000E+03  0.80419002446E+02 0. -1.
</event>
<event>
 4    1  0.1653896E-001  0.1250000E+03  0.7546771E-02  0.1126479E+00
        -11   -1    0    0    0    0  0.00000000000E+00  0.00000000000E+00  0.12500000000E+03  0.12500000000E+03  0.00000000000E+00 0.  1.
         11   -1    0    0    0    0 -0.00000000000E+00 -0.00000000000E+00 -0.12500000000E+03  0.12500000000E+03  0.00000000000E+00 0. -1.
         24    1    1    2    0    0 -0.10503655823E+02 -0.12621058479E+02  0.94277071141E+02  0.12500000000E+03  0.80419002446E+02 0.  0.
        -24    1    1    2    0    0  0.10503655823E+02  0.12621058479E+02 -0.94277071141E+02  0.12500000000E+03  0.80419002446E+02 0.  1.
</event>
<event>
 4    1  0.1653896E-001  0.1250000E+03  0.7546771E-02  0.1126479E+00
        -11   -1    0    0    0    0  0.00000000000E+00  0.00000000000E+00  0.12500000000E+03  0.12500000000E+03  0.00000000000E+00 0.  1.
         11   -1    0    0    0    0 -0.00000000000E+00 -0.00000000000E+00 -0.12500000000E+03  0.12500000000E+03  0.00000000000E+00 0. -1.
         24    1    1    2    0    0 -0.28454015811E+02 -0.27050912964E+02  0.87271995151E+02  0.12500000000E+03  0.80419002446E+02 0.  1.
        -24    1    1    2    0    0  0.28454015811E+02  0.27050912964E+02 -0.87271995151E+02  0.12500000000E+03  0.80419002446E+02 0. -1.
</event>
<event>
 4    1  0.1653896E-001  0.1250000E+03  0.7546771E-02  0.1126479E+00
        -11   -1    0    0    0    0  0.00000000000E+00  0.00000000000E+00  0.12500000000E+03  0.12500000000E+03  0.00000000000E+00 0.  1.
         11   -1    0    0    0    0 -0.00000000000E+00 -0.00000000000E+00 -0.12500000000E+03  0.12500000000E+03  0.00000000000E+00 0. -1.
         24    1    1    2    0    0 -0.28912073143E+02 -0.38559559717E+02  0.82674279112E+02  0.12500000000E+03  0.80419002446E+02 0.  1.
        -24    1    1    2    0    0  0.28912073143E+02  0.38559559717E+02 -0.82674279112E+02  0.12500000000E+03  0.80419002446E+02 0. -1.
</event>
<event>
 4    1  0.1653896E-001  0.1250000E+03  0.7546771E-02  0.1126479E+00
        -11   -1    0    0    0    0  0.00000000000E+00  0.00000000000E+00  0.12500000000E+03  0.12500000000E+03  0.00000000000E+00 0.  1.
         11   -1    0    0    0    0 -0.00000000000E+00 -0.00000000000E+00 -0.12500000000E+03  0.12500000000E+03  0.00000000000E+00 0. -1.
         24    1    1    2    0    0  0.17897506309E+02  0.24230276848E+02  0.90831475808E+02  0.12500000000E+03  0.80419002446E+02 0.  1.
        -24    1    1    2    0    0 -0.17897506309E+02 -0.24230276848E+02 -0.90831475808E+02  0.12500000000E+03  0.80419002446E+02 0. -1.
</event>
<event>
 4    1  0.1653896E-001  0.1250000E+03  0.7546771E-02  0.1126479E+00
        -11   -1    0    0    0    0  0.00000000000E+00  0.00000000000E+00  0.12500000000E+03  0.12500000000E+03  0.00000000000E+00 0.  1.
         11   -1    0    0    0    0 -0.00000000000E+00 -0.00000000000E+00 -0.12500000000E+03  0.12500000000E+03  0.00000000000E+00 0. -1.
         24    1    1    2    0    0 -0.74427004742E+01  0.65194646263E+01  0.95183437825E+02  0.12500000000E+03  0.80419002446E+02 0.  1.
        -24    1    1    2    0    0  0.74427004742E+01 -0.65194646263E+01 -0.95183437825E+02  0.12500000000E+03  0.80419002446E+02 0.  0.
</event>
<event>
 4    1  0.1653896E-001  0.1250000E+03  0.7546771E-02  0.1126479E+00
        -11   -1    0    0    0    0  0.00000000000E+00  0.00000000000E+00  0.12500000000E+03  0.12500000000E+03  0.00000000000E+00 0.  1.
         11   -1    0    0    0    0 -0.00000000000E+00 -0.00000000000E+00 -0.12500000000E+03  0.12500000000E+03  0.00000000000E+00 0. -1.
         24    1    1    2    0    0  0.78508671664E+02  0.17739677330E+02  0.51763658752E+02  0.12500000000E+03  0.80419002446E+02 0.  1.
        -24    1    1    2    0    0 -0.78508671664E+02 -0.17739677330E+02 -0.51763658752E+02  0.12500000000E+03  0.80419002446E+02 0. -1.
</event>
<event>
 4    1  0.1653896E-001  0.1250000E+03  0.7546771E-02  0.1126479E+00
        -11   -1    0    0    0    0  0.00000000000E+00  0.00000000000E+00  0.12500000000E+03  0.12500000000E+03  0.00000000000E+00 0.  1.
         11   -1    0    0    0    0 -0.00000000000E+00 -0.00000000000E+00 -0.12500000000E+03  0.12500000000E+03  0.00000000000E+00 0. -1.
         24    1    1    2    0    0 -0.36332534703E+02 -0.82522954067E+02  0.32057651501E+02  0.12500000000E+03  0.80419002446E+02 0.  1.
        -24    1    1    2    0    0  0.36332534703E+02  0.82522954067E+02 -0.32057651501E+02  0.12500000000E+03  0.80419002446E+02 0. -1.
</event>
<event>
 4    1  0.1653896E-001  0.1250000E+03  0.7546771E-02  0.1126479E+00
        -11   -1    0    0    0    0  0.00000000000E+00  0.00000000000E+00  0.12500000000E+03  0.12500000000E+03  0.00000000000E+00 0.  1.
         11   -1    0    0    0    0 -0.00000000000E+00 -0.00000000000E+00 -0.12500000000E+03  0.12500000000E+03  0.00000000000E+00 0. -1.
         24    1    1    2    0    0  0.21130009372E+01  0.38015949649E+02  0.87795824758E+02  0.12500000000E+03  0.80419002446E+02 0.  1.
        -24    1    1    2    0    0 -0.21130009372E+01 -0.38015949649E+02 -0.87795824758E+02  0.12500000000E+03  0.80419002446E+02 0. -1.
</event>
<event>
 4    1  0.1653896E-001  0.1250000E+03  0.7546771E-02  0.1126479E+00
        -11   -1    0    0    0    0  0.00000000000E+00  0.00000000000E+00  0.12500000000E+03  0.12500000000E+03  0.00000000000E+00 0.  1.
         11   -1    0    0    0    0 -0.00000000000E+00 -0.00000000000E+00 -0.12500000000E+03  0.12500000000E+03  0.00000000000E+00 0. -1.
         24    1    1    2    0    0 -0.17750077552E+02 -0.54076497800E+02  0.76931470662E+02  0.12500000000E+03  0.80419002446E+02 0.  0.
        -24    1    1    2    0    0  0.17750077552E+02  0.54076497800E+02 -0.76931470662E+02  0.12500000000E+03  0.80419002446E+02 0.  0.
</event>
<event>
 4    1  0.1653896E-001  0.1250000E+03  0.7546771E-02  0.1126479E+00
        -11   -1    0    0    0    0  0.00000000000E+00  0.00000000000E+00  0.12500000000E+03  0.12500000000E+03  0.00000000000E+00 0. -1.
         11   -1    0    0    0    0 -0.00000000000E+00 -0.00000000000E+00 -0.12500000000E+03  0.12500000000E+03  0.00000000000E+00 0.  1.
         24    1    1    2    0    0 -0.28272317402E+02 -0.35780463335E+02 -0.84132149372E+02  0.12500000000E+03  0.80419002446E+02 0.  0.
        -24    1    1    2    0    0  0.28272317402E+02  0.35780463335E+02  0.84132149372E+02  0.12500000000E+03  0.80419002446E+02 0. -1.
</event>
<event>
 4    1  0.1653896E-001  0.1250000E+03  0.7546771E-02  0.1126479E+00
        -11   -1    0    0    0    0  0.00000000000E+00  0.00000000000E+00  0.12500000000E+03  0.12500000000E+03  0.00000000000E+00 0.  1.
         11   -1    0    0    0    0 -0.00000000000E+00 -0.00000000000E+00 -0.12500000000E+03  0.12500000000E+03  0.00000000000E+00 0. -1.
         24    1    1    2    0    0  0.14109925390E+02  0.37882871940E+02  0.86738584636E+02  0.12500000000E+03  0.80419002446E+02 0.  1.
        -24    1    1    2    0    0 -0.14109925390E+02 -0.37882871940E+02 -0.86738584636E+02  0.12500000000E+03  0.80419002446E+02 0. -1.
</event>
<event>
 4    1  0.1653896E-001  0.1250000E+03  0.7546771E-02  0.1126479E+00
        -11   -1    0    0    0    0  0.00000000000E+00  0.00000000000E+00  0.12500000000E+03  0.12500000000E+03  0.00000000000E+00 0.  1.
         11   -1    0    0    0    0 -0.00000000000E+00 -0.00000000000E+00 -0.12500000000E+03  0.12500000000E+03  0.00000000000E+00 0. -1.
         24    1    1    2    0    0  0.43181179634E+02 -0.48045386434E+02  0.70603191241E+02  0.12500000000E+03  0.80419002446E+02 0.  1.
        -24    1    1    2    0    0 -0.43181179634E+02  0.48045386434E+02 -0.70603191241E+02  0.12500000000E+03  0.80419002446E+02 0. -1.
</event>
<event>
 4    1  0.1653896E-001  0.1250000E+03  0.7546771E-02  0.1126479E+00
        -11   -1    0    0    0    0  0.00000000000E+00  0.00000000000E+00  0.12500000000E+03  0.12500000000E+03  0.00000000000E+00 0.  1.
         11   -1    0    0    0    0 -0.00000000000E+00 -0.00000000000E+00 -0.12500000000E+03  0.12500000000E+03  0.00000000000E+00 0. -1.
         24    1    1    2    0    0 -0.64317314212E+02 -0.21421608918E+02  0.67543925038E+02  0.12500000000E+03  0.80419002446E+02 0.  1.
        -24    1    1    2    0    0  0.64317314212E+02  0.21421608918E+02 -0.67543925038E+02  0.12500000000E+03  0.80419002446E+02 0. -1.
</event>
<event>
 4    1  0.1653896E-001  0.1250000E+03  0.7546771E-02  0.1126479E+00
        -11   -1    0    0    0    0  0.00000000000E+00  0.00000000000E+00  0.12500000000E+03  0.12500000000E+03  0.00000000000E+00 0.  1.
         11   -1    0    0    0    0 -0.00000000000E+00 -0.00000000000E+00 -0.12500000000E+03  0.12500000000E+03  0.00000000000E+00 0. -1.
         24    1    1    2    0    0  0.44239718358E+01 -0.43351622508E+02  0.85198881124E+02  0.12500000000E+03  0.80419002446E+02 0.  1.
        -24    1    1    2    0    0 -0.44239718358E+01  0.43351622508E+02 -0.85198881124E+02  0.12500000000E+03  0.80419002446E+02 0. -1.
</event>
<event>
 4    1  0.1653896E-001  0.1250000E+03  0.7546771E-02  0.1126479E+00
        -11   -1    0    0    0    0  0.00000000000E+00  0.00000000000E+00  0.12500000000E+03  0.12500000000E+03  0.00000000000E+00 0.  1.
         11   -1    0    0    0    0 -0.00000000000E+00 -0.00000000000E+00 -0.12500000000E+03  0.12500000000E+03  0.00000000000E+00 0. -1.
         24    1    1    2    0    0 -0.15372554156E+02 -0.44844233048E+02  0.83129196957E+02  0.12500000000E+03  0.80419002446E+02 0.  1.
        -24    1    1    2    0    0  0.15372554156E+02  0.44844233048E+02 -0.83129196957E+02  0.12500000000E+03  0.80419002446E+02 0. -1.
</event>
<event>
 4    1  0.1653896E-001  0.1250000E+03  0.7546771E-02  0.1126479E+00
        -11   -1    0    0    0    0  0.00000000000E+00  0.00000000000E+00  0.12500000000E+03  0.12500000000E+03  0.00000000000E+00 0.  1.
         11   -1    0    0    0    0 -0.00000000000E+00 -0.00000000000E+00 -0.12500000000E+03  0.12500000000E+03  0.00000000000E+00 0. -1.
         24    1    1    2    0    0  0.48077241909E+02 -0.19877045469E+02  0.80319772905E+02  0.12500000000E+03  0.80419002446E+02 0.  1.
        -24    1    1    2    0    0 -0.48077241909E+02  0.19877045469E+02 -0.80319772905E+02  0.12500000000E+03  0.80419002446E+02 0. -1.
</event>
<event>
 4    1  0.1653896E-001  0.1250000E+03  0.7546771E-02  0.1126479E+00
        -11   -1    0    0    0    0  0.00000000000E+00  0.00000000000E+00  0.12500000000E+03  0.12500000000E+03  0.00000000000E+00 0.  1.
         11   -1    0    0    0    0 -0.00000000000E+00 -0.00000000000E+00 -0.12500000000E+03  0.12500000000E+03  0.00000000000E+00 0. -1.
         24    1    1    2    0    0  0.28564629597E+02  0.59138302602E+02  0.69602493828E+02  0.12500000000E+03  0.80419002446E+02 0.  1.
        -24    1    1    2    0    0 -0.28564629597E+02 -0.59138302602E+02 -0.69602493828E+02  0.12500000000E+03  0.80419002446E+02 0. -1.
</event>
<event>
 4    1  0.1653896E-001  0.1250000E+03  0.7546771E-02  0.1126479E+00
        -11   -1    0    0    0    0  0.00000000000E+00  0.00000000000E+00  0.12500000000E+03  0.12500000000E+03  0.00000000000E+00 0.  1.
         11   -1    0    0    0    0 -0.00000000000E+00 -0.00000000000E+00 -0.12500000000E+03  0.12500000000E+03  0.00000000000E+00 0. -1.
         24    1    1    2    0    0  0.66257085220E+02  0.11667150462E+01  0.69039274908E+02  0.12500000000E+03  0.80419002446E+02 0.  1.
        -24    1    1    2    0    0 -0.66257085220E+02 -0.11667150462E+01 -0.69039274908E+02  0.12500000000E+03  0.80419002446E+02 0. -1.
</event>
<event>
 4    1  0.1653896E-001  0.1250000E+03  0.7546771E-02  0.1126479E+00
        -11   -1    0    0    0    0  0.00000000000E+00  0.00000000000E+00  0.12500000000E+03  0.12500000000E+03  0.00000000000E+00 0.  1.
         11   -1    0    0    0    0 -0.00000000000E+00 -0.00000000000E+00 -0.12500000000E+03  0.12500000000E+03  0.00000000000E+00 0. -1.
         24    1    1    2    0    0 -0.73546588233E+02  0.50802516908E+02  0.34172908580E+02  0.12500000000E+03  0.80419002446E+02 0.  1.
        -24    1    1    2    0    0  0.73546588233E+02 -0.50802516908E+02 -0.34172908580E+02  0.12500000000E+03  0.80419002446E+02 0. -1.
</event>
<event>
 4    1  0.1653896E-001  0.1250000E+03  0.7546771E-02  0.1126479E+00
        -11   -1    0    0    0    0  0.00000000000E+00  0.00000000000E+00  0.12500000000E+03  0.12500000000E+03  0.00000000000E+00 0.  1.
         11   -1    0    0    0    0 -0.00000000000E+00 -0.00000000000E+00 -0.12500000000E+03  0.12500000000E+03  0.00000000000E+00 0. -1.
         24    1    1    2    0    0 -0.20765329513E+02  0.42675227704E+02  0.83098797081E+02  0.12500000000E+03  0.80419002446E+02 0.  0.
        -24    1    1    2    0    0  0.20765329513E+02 -0.42675227704E+02 -0.83098797081E+02  0.12500000000E+03  0.80419002446E+02 0.  0.
</event>
<event>
 4    1  0.1653896E-001  0.1250000E+03  0.7546771E-02  0.1126479E+00
        -11   -1    0    0    0    0  0.00000000000E+00  0.00000000000E+00  0.12500000000E+03  0.12500000000E+03  0.00000000000E+00 0.  1.
         11   -1    0    0    0    0 -0.00000000000E+00 -0.00000000000E+00 -0.12500000000E+03  0.12500000000E+03  0.00000000000E+00 0. -1.
         24    1    1    2    0    0  0.24539891463E+02 -0.36592357142E+02  0.84950439501E+02  0.12500000000E+03  0.80419002446E+02 0.  1.
        -24    1    1    2    0    0 -0.24539891463E+02  0.36592357142E+02 -0.84950439501E+02  0.12500000000E+03  0.80419002446E+02 0. -1.
</event>
<event>
 4    1  0.1653896E-001  0.1250000E+03  0.7546771E-02  0.1126479E+00
        -11   -1    0    0    0    0  0.00000000000E+00  0.00000000000E+00  0.12500000000E+03  0.12500000000E+03  0.00000000000E+00 0.  1.
         11   -1    0    0    0    0 -0.00000000000E+00 -0.00000000000E+00 -0.12500000000E+03  0.12500000000E+03  0.00000000000E+00 0. -1.
         24    1    1    2    0    0 -0.20922502889E+02 -0.10535740359E+02  0.92784864572E+02  0.12500000000E+03  0.80419002446E+02 0.  1.
        -24    1    1    2    0    0  0.20922502889E+02  0.10535740359E+02 -0.92784864572E+02  0.12500000000E+03  0.80419002446E+02 0.  0.
</event>
<event>
 4    1  0.1653896E-001  0.1250000E+03  0.7546771E-02  0.1126479E+00
        -11   -1    0    0    0    0  0.00000000000E+00  0.00000000000E+00  0.12500000000E+03  0.12500000000E+03  0.00000000000E+00 0.  1.
         11   -1    0    0    0    0 -0.00000000000E+00 -0.00000000000E+00 -0.12500000000E+03  0.12500000000E+03  0.00000000000E+00 0. -1.
         24    1    1    2    0    0  0.68791570617E+02  0.12764783556E+02  0.65288315635E+02  0.12500000000E+03  0.80419002446E+02 0.  1.
        -24    1    1    2    0    0 -0.68791570617E+02 -0.12764783556E+02 -0.65288315635E+02  0.12500000000E+03  0.80419002446E+02 0. -1.
</event>
<event>
 4    1  0.1653896E-001  0.1250000E+03  0.7546771E-02  0.1126479E+00
        -11   -1    0    0    0    0  0.00000000000E+00  0.00000000000E+00  0.12500000000E+03  0.12500000000E+03  0.00000000000E+00 0.  1.
         11   -1    0    0    0    0 -0.00000000000E+00 -0.00000000000E+00 -0.12500000000E+03  0.12500000000E+03  0.00000000000E+00 0. -1.
         24    1    1    2    0    0  0.51049842576E+02 -0.45889368967E+02  0.66677308242E+02  0.12500000000E+03  0.80419002446E+02 0.  1.
        -24    1    1    2    0    0 -0.51049842576E+02  0.45889368967E+02 -0.66677308242E+02  0.12500000000E+03  0.80419002446E+02 0. -1.
</event>
<event>
 4    1  0.1653896E-001  0.1250000E+03  0.7546771E-02  0.1126479E+00
        -11   -1    0    0    0    0  0.00000000000E+00  0.00000000000E+00  0.12500000000E+03  0.12500000000E+03  0.00000000000E+00 0.  1.
         11   -1    0    0    0    0 -0.00000000000E+00 -0.00000000000E+00 -0.12500000000E+03  0.12500000000E+03  0.00000000000E+00 0. -1.
         24    1    1    2    0    0 -0.17613025418E+02 -0.29585398153E+02  0.89287566869E+02  0.12500000000E+03  0.80419002446E+02 0.  1.
        -24    1    1    2    0    0  0.17613025418E+02  0.29585398153E+02 -0.89287566869E+02  0.12500000000E+03  0.80419002446E+02 0. -1.
</event>
<event>
 4    1  0.1653896E-001  0.1250000E+03  0.7546771E-02  0.1126479E+00
        -11   -1    0    0    0    0  0.00000000000E+00  0.00000000000E+00  0.12500000000E+03  0.12500000000E+03  0.00000000000E+00 0.  1.
         11   -1    0    0    0    0 -0.00000000000E+00 -0.00000000000E+00 -0.12500000000E+03  0.12500000000E+03  0.00000000000E+00 0. -1.
         24    1    1    2    0    0 -0.34392651536E+02 -0.37526157214E+02  0.81035282999E+02  0.12500000000E+03  0.80419002446E+02 0.  1.
        -24    1    1    2    0    0  0.34392651536E+02  0.37526157214E+02 -0.81035282999E+02  0.12500000000E+03  0.80419002446E+02 0. -1.
</event>
<event>
 4    1  0.1653896E-001  0.1250000E+03  0.7546771E-02  0.1126479E+00
        -11   -1    0    0    0    0  0.00000000000E+00  0.00000000000E+00  0.12500000000E+03  0.12500000000E+03  0.00000000000E+00 0.  1.
         11   -1    0    0    0    0 -0.00000000000E+00 -0.00000000000E+00 -0.12500000000E+03  0.12500000000E+03  0.00000000000E+00 0. -1.
         24    1    1    2    0    0 -0.80610577737E+01  0.70383490569E+02  0.64334808996E+02  0.12500000000E+03  0.80419002446E+02 0. -1.
        -24    1    1    2    0    0  0.80610577737E+01 -0.70383490569E+02 -0.64334808996E+02  0.12500000000E+03  0.80419002446E+02 0.  1.
</event>
<event>
 4    1  0.1653896E-001  0.1250000E+03  0.7546771E-02  0.1126479E+00
        -11   -1    0    0    0    0  0.00000000000E+00  0.00000000000E+00  0.12500000000E+03  0.12500000000E+03  0.00000000000E+00 0.  1.
         11   -1    0    0    0    0 -0.00000000000E+00 -0.00000000000E+00 -0.12500000000E+03  0.12500000000E+03  0.00000000000E+00 0. -1.
         24    1    1    2    0    0 -0.38355292145E+02 -0.35876733369E+02  0.79996972523E+02  0.12500000000E+03  0.80419002446E+02 0.  1.
        -24    1    1    2    0    0  0.38355292145E+02  0.35876733369E+02 -0.79996972523E+02  0.12500000000E+03  0.80419002446E+02 0. -1.
</event>
<event>
 4    1  0.1653896E-001  0.1250000E+03  0.7546771E-02  0.1126479E+00
        -11   -1    0    0    0    0  0.00000000000E+00  0.00000000000E+00  0.12500000000E+03  0.12500000000E+03  0.00000000000E+00 0.  1.
         11   -1    0    0    0    0 -0.00000000000E+00 -0.00000000000E+00 -0.12500000000E+03  0.12500000000E+03  0.00000000000E+00 0. -1.
         24    1    1    2    0    0 -0.35507600426E+02 -0.38349188641E+02  0.80164419091E+02  0.12500000000E+03  0.80419002446E+02 0.  0.
        -24    1    1    2    0    0  0.35507600426E+02  0.38349188641E+02 -0.80164419091E+02  0.12500000000E+03  0.80419002446E+02 0.  1.
</event>
<event>
 4    1  0.1653896E-001  0.1250000E+03  0.7546771E-02  0.1126479E+00
        -11   -1    0    0    0    0  0.00000000000E+00  0.00000000000E+00  0.12500000000E+03  0.12500000000E+03  0.00000000000E+00 0.  1.
         11   -1    0    0    0    0 -0.00000000000E+00 -0.00000000000E+00 -0.12500000000E+03  0.12500000000E+03  0.00000000000E+00 0. -1.
         24    1    1    2    0    0  0.19289677290E+02 -0.31077344816E+02  0.88430147771E+02  0.12500000000E+03  0.80419002446E+02 0.  1.
        -24    1    1    2    0    0 -0.19289677290E+02  0.31077344816E+02 -0.88430147771E+02  0.12500000000E+03  0.80419002446E+02 0. -1.
</event>
<event>
 4    1  0.1653896E-001  0.1250000E+03  0.7546771E-02  0.1126479E+00
        -11   -1    0    0    0    0  0.00000000000E+00  0.00000000000E+00  0.12500000000E+03  0.12500000000E+03  0.00000000000E+00 0.  1.
         11   -1    0    0    0    0 -0.00000000000E+00 -0.00000000000E+00 -0.12500000000E+03  0.12500000000E+03  0.00000000000E+00 0. -1.
         24    1    1    2    0    0 -0.26790678724E+02 -0.86206748205E+02 -0.31755946577E+02  0.12500000000E+03  0.80419002446E+02 0.  0.
        -24    1    1    2    0    0  0.26790678724E+02  0.86206748205E+02  0.31755946577E+02  0.12500000000E+03  0.80419002446E+02 0.  0.
</event>
<event>
 4    1  0.1653896E-001  0.1250000E+03  0.7546771E-02  0.1126479E+00
        -11   -1    0    0    0    0  0.00000000000E+00  0.00000000000E+00  0.12500000000E+03  0.12500000000E+03  0.00000000000E+00 0.  1.
         11   -1    0    0    0    0 -0.00000000000E+00 -0.00000000000E+00 -0.12500000000E+03  0.12500000000E+03  0.00000000000E+00 0. -1.
         24    1    1    2    0    0  0.58685009650E+02 -0.56572745158E+02  0.50133603433E+02  0.12500000000E+03  0.80419002446E+02 0.  1.
        -24    1    1    2    0    0 -0.58685009650E+02  0.56572745158E+02 -0.50133603433E+02  0.12500000000E+03  0.80419002446E+02 0. -1.
</event>
<event>
 4    1  0.1653896E-001  0.1250000E+03  0.7546771E-02  0.1126479E+00
        -11   -1    0    0    0    0  0.00000000000E+00  0.00000000000E+00  0.12500000000E+03  0.12500000000E+03  0.00000000000E+00 0.  1.
         11   -1    0    0    0    0 -0.00000000000E+00 -0.00000000000E+00 -0.12500000000E+03  0.12500000000E+03  0.00000000000E+00 0. -1.
         24    1    1    2    0    0  0.42746608343E+02 -0.21058546860E+02  0.82988246908E+02  0.12500000000E+03  0.80419002446E+02 0.  1.
        -24    1    1    2    0    0 -0.42746608343E+02  0.21058546860E+02 -0.82988246908E+02  0.12500000000E+03  0.80419002446E+02 0. -1.
</event>
<event>
 4    1  0.1653896E-001  0.1250000E+03  0.7546771E-02  0.1126479E+00
        -11   -1    0    0    0    0  0.00000000000E+00  0.00000000000E+00  0.12500000000E+03  0.12500000000E+03  0.00000000000E+00 0.  1.
         11   -1    0    0    0    0 -0.00000000000E+00 -0.00000000000E+00 -0.12500000000E+03  0.12500000000E+03  0.00000000000E+00 0. -1.
         24    1    1    2    0    0 -0.70375007346E+01  0.74341459465E+02  0.59846512293E+02  0.12500000000E+03  0.80419002446E+02 0.  1.
        -24    1    1    2    0    0  0.70375007346E+01 -0.74341459465E+02 -0.59846512293E+02  0.12500000000E+03  0.80419002446E+02 0. -1.
</event>
<event>
 4    1  0.1653896E-001  0.1250000E+03  0.7546771E-02  0.1126479E+00
        -11   -1    0    0    0    0  0.00000000000E+00  0.00000000000E+00  0.12500000000E+03  0.12500000000E+03  0.00000000000E+00 0.  1.
         11   -1    0    0    0    0 -0.00000000000E+00 -0.00000000000E+00 -0.12500000000E+03  0.12500000000E+03  0.00000000000E+00 0. -1.
         24    1    1    2    0    0  0.52329370041E+02  0.33667628013E+01  0.80050521454E+02  0.12500000000E+03  0.80419002446E+02 0.  1.
        -24    1    1    2    0    0 -0.52329370041E+02 -0.33667628013E+01 -0.80050521454E+02  0.12500000000E+03  0.80419002446E+02 0.  1.
</event>
<event>
 4    1  0.1653896E-001  0.1250000E+03  0.7546771E-02  0.1126479E+00
        -11   -1    0    0    0    0  0.00000000000E+00  0.00000000000E+00  0.12500000000E+03  0.12500000000E+03  0.00000000000E+00 0.  1.
         11   -1    0    0    0    0 -0.00000000000E+00 -0.00000000000E+00 -0.12500000000E+03  0.12500000000E+03  0.00000000000E+00 0. -1.
         24    1    1    2    0    0 -0.62143860433E+01 -0.57033458958E+02  0.76592101492E+02  0.12500000000E+03  0.80419002446E+02 0.  1.
        -24    1    1    2    0    0  0.62143860433E+01  0.57033458958E+02 -0.76592101492E+02  0.12500000000E+03  0.80419002446E+02 0. -1.
</event>
<event>
 4    1  0.1653896E-001  0.1250000E+03  0.7546771E-02  0.1126479E+00
        -11   -1    0    0    0    0  0.00000000000E+00  0.00000000000E+00  0.12500000000E+03  0.12500000000E+03  0.00000000000E+00 0.  1.
         11   -1    0    0    0    0 -0.00000000000E+00 -0.00000000000E+00 -0.12500000000E+03  0.12500000000E+03  0.00000000000E+00 0. -1.
         24    1    1    2    0    0  0.16666836655E+02 -0.23207368495E+02  0.91331367279E+02  0.12500000000E+03  0.80419002446E+02 0.  1.
        -24    1    1    2    0    0 -0.16666836655E+02  0.23207368495E+02 -0.91331367279E+02  0.12500000000E+03  0.80419002446E+02 0. -1.
</event>
<event>
 4    1  0.1653896E-001  0.1250000E+03  0.7546771E-02  0.1126479E+00
        -11   -1    0    0    0    0  0.00000000000E+00  0.00000000000E+00  0.12500000000E+03  0.12500000000E+03  0.00000000000E+00 0.  1.
         11   -1    0    0    0    0 -0.00000000000E+00 -0.00000000000E+00 -0.12500000000E+03  0.12500000000E+03  0.00000000000E+00 0. -1.
         24    1    1    2    0    0  0.73117442433E+01 -0.26184061286E+02  0.91753568739E+02  0.12500000000E+03  0.80419002446E+02 0.  1.
        -24    1    1    2    0    0 -0.73117442433E+01  0.26184061286E+02 -0.91753568739E+02  0.12500000000E+03  0.80419002446E+02 0. -1.
</event>
<event>
 4    1  0.1653896E-001  0.1250000E+03  0.7546771E-02  0.1126479E+00
        -11   -1    0    0    0    0  0.00000000000E+00  0.00000000000E+00  0.12500000000E+03  0.12500000000E+03  0.00000000000E+00 0.  1.
         11   -1    0    0    0    0 -0.00000000000E+00 -0.00000000000E+00 -0.12500000000E+03  0.12500000000E+03  0.00000000000E+00 0. -1.
         24    1    1    2    0    0  0.47718479103E+02  0.17181399647E+01  0.82932374817E+02  0.12500000000E+03  0.80419002446E+02 0.  1.
        -24    1    1    2    0    0 -0.47718479103E+02 -0.17181399647E+01 -0.82932374817E+02  0.12500000000E+03  0.80419002446E+02 0. -1.
</event>
<event>
 4    1  0.1653896E-001  0.1250000E+03  0.7546771E-02  0.1126479E+00
        -11   -1    0    0    0    0  0.00000000000E+00  0.00000000000E+00  0.12500000000E+03  0.12500000000E+03  0.00000000000E+00 0.  1.
         11   -1    0    0    0    0 -0.00000000000E+00 -0.00000000000E+00 -0.12500000000E+03  0.12500000000E+03  0.00000000000E+00 0. -1.
         24    1    1    2    0    0  0.29346017773E+01  0.55373039140E+02  0.77993581110E+02  0.12500000000E+03  0.80419002446E+02 0.  1.
        -24    1    1    2    0    0 -0.29346017773E+01 -0.55373039140E+02 -0.77993581110E+02  0.12500000000E+03  0.80419002446E+02 0. -1.
</event>
<event>
 4    1  0.1653896E-001  0.1250000E+03  0.7546771E-02  0.1126479E+00
        -11   -1    0    0    0    0  0.00000000000E+00  0.00000000000E+00  0.12500000000E+03  0.12500000000E+03  0.00000000000E+00 0.  1.
         11   -1    0    0    0    0 -0.00000000000E+00 -0.00000000000E+00 -0.12500000000E+03  0.12500000000E+03  0.00000000000E+00 0. -1.
         24    1    1    2    0    0  0.46755125956E+02  0.31803800555E+02  0.77202723480E+02  0.12500000000E+03  0.80419002446E+02 0.  1.
        -24    1    1    2    0    0 -0.46755125956E+02 -0.31803800555E+02 -0.77202723480E+02  0.12500000000E+03  0.80419002446E+02 0. -1.
</event>
<event>
 4    1  0.1653896E-001  0.1250000E+03  0.7546771E-02  0.1126479E+00
        -11   -1    0    0    0    0  0.00000000000E+00  0.00000000000E+00  0.12500000000E+03  0.12500000000E+03  0.00000000000E+00 0.  1.
         11   -1    0    0    0    0 -0.00000000000E+00 -0.00000000000E+00 -0.12500000000E+03  0.12500000000E+03  0.00000000000E+00 0. -1.
         24    1    1    2    0    0  0.18168884954E+02  0.31904568415E+00  0.93955169496E+02  0.12500000000E+03  0.80419002446E+02 0.  1.
        -24    1    1    2    0    0 -0.18168884954E+02 -0.31904568415E+00 -0.93955169496E+02  0.12500000000E+03  0.80419002446E+02 0. -1.
</event>
<event>
 4    1  0.1653896E-001  0.1250000E+03  0.7546771E-02  0.1126479E+00
        -11   -1    0    0    0    0  0.00000000000E+00  0.00000000000E+00  0.12500000000E+03  0.12500000000E+03  0.00000000000E+00 0.  1.
         11   -1    0    0    0    0 -0.00000000000E+00 -0.00000000000E+00 -0.12500000000E+03  0.12500000000E+03  0.00000000000E+00 0. -1.
         24    1    1    2    0    0  0.53365236608E+02 -0.13222757803E+02  0.78326842420E+02  0.12500000000E+03  0.80419002446E+02 0.  1.
        -24    1    1    2    0    0 -0.53365236608E+02  0.13222757803E+02 -0.78326842420E+02  0.12500000000E+03  0.80419002446E+02 0. -1.
</event>
<event>
 4    1  0.1653896E-001  0.1250000E+03  0.7546771E-02  0.1126479E+00
        -11   -1    0    0    0    0  0.00000000000E+00  0.00000000000E+00  0.12500000000E+03  0.12500000000E+03  0.00000000000E+00 0.  1.
         11   -1    0    0    0    0 -0.00000000000E+00 -0.00000000000E+00 -0.12500000000E+03  0.12500000000E+03  0.00000000000E+00 0. -1.
         24    1    1    2    0    0 -0.52416855464E+02  0.46400510223E+02  0.65247605013E+02  0.12500000000E+03  0.80419002446E+02 0.  1.
        -24    1    1    2    0    0  0.52416855464E+02 -0.46400510223E+02 -0.65247605013E+02  0.12500000000E+03  0.80419002446E+02 0. -1.
</event>
<event>
 4    1  0.1653896E-001  0.1250000E+03  0.7546771E-02  0.1126479E+00
        -11   -1    0    0    0    0  0.00000000000E+00  0.00000000000E+00  0.12500000000E+03  0.12500000000E+03  0.00000000000E+00 0.  1.
         11   -1    0    0    0    0 -0.00000000000E+00 -0.00000000000E+00 -0.12500000000E+03  0.12500000000E+03  0.00000000000E+00 0. -1.
         24    1    1    2    0    0 -0.59122813305E+01 -0.85769407059E+02 -0.42029011265E+02  0.12500000000E+03  0.80419002446E+02 0.  1.
        -24    1    1    2    0    0  0.59122813305E+01  0.85769407059E+02  0.42029011265E+02  0.12500000000E+03  0.80419002446E+02 0. -1.
</event>
<event>
 4    1  0.1653896E-001  0.1250000E+03  0.7546771E-02  0.1126479E+00
        -11   -1    0    0    0    0  0.00000000000E+00  0.00000000000E+00  0.12500000000E+03  0.12500000000E+03  0.00000000000E+00 0.  1.
         11   -1    0    0    0    0 -0.00000000000E+00 -0.00000000000E+00 -0.12500000000E+03  0.12500000000E+03  0.00000000000E+00 0. -1.
         24    1    1    2    0    0  0.43442003441E+02  0.21075471013E+02  0.82622036432E+02  0.12500000000E+03  0.80419002446E+02 0.  1.
        -24    1    1    2    0    0 -0.43442003441E+02 -0.21075471013E+02 -0.82622036432E+02  0.12500000000E+03  0.80419002446E+02 0. -1.
</event>
<event>
 4    1  0.1653896E-001  0.1250000E+03  0.7546771E-02  0.1126479E+00
        -11   -1    0    0    0    0  0.00000000000E+00  0.00000000000E+00  0.12500000000E+03  0.12500000000E+03  0.00000000000E+00 0.  1.
         11   -1    0    0    0    0 -0.00000000000E+00 -0.00000000000E+00 -0.12500000000E+03  0.12500000000E+03  0.00000000000E+00 0. -1.
         24    1    1    2    0    0 -0.77448484361E+01 -0.44523003946E+02  0.84353443842E+02  0.12500000000E+03  0.80419002446E+02 0.  1.
        -24    1    1    2    0    0  0.77448484361E+01  0.44523003946E+02 -0.84353443842E+02  0.12500000000E+03  0.80419002446E+02 0. -1.
</event>
<event>
 4    1  0.1653896E-001  0.1250000E+03  0.7546771E-02  0.1126479E+00
        -11   -1    0    0    0    0  0.00000000000E+00  0.00000000000E+00  0.12500000000E+03  0.12500000000E+03  0.00000000000E+00 0.  1.
         11   -1    0    0    0    0 -0.00000000000E+00 -0.00000000000E+00 -0.12500000000E+03  0.12500000000E+03  0.00000000000E+00 0. -1.
         24    1    1    2    0    0  0.81138518406E+02 -0.16191351205E+01  0.50711963855E+02  0.12500000000E+03  0.80419002446E+02 0.  1.
        -24    1    1    2    0    0 -0.81138518406E+02  0.16191351205E+01 -0.50711963855E+02  0.12500000000E+03  0.80419002446E+02 0. -1.
</event>
<event>
 4    1  0.1653896E-001  0.1250000E+03  0.7546771E-02  0.1126479E+00
        -11   -1    0    0    0    0  0.00000000000E+00  0.00000000000E+00  0.12500000000E+03  0.12500000000E+03  0.00000000000E+00 0.  1.
         11   -1    0    0    0    0 -0.00000000000E+00 -0.00000000000E+00 -0.12500000000E+03  0.12500000000E+03  0.00000000000E+00 0. -1.
         24    1    1    2    0    0  0.79432741040E-01  0.19694792042E+01  0.95676009991E+02  0.12500000000E+03  0.80419002446E+02 0.  1.
        -24    1    1    2    0    0 -0.79432741040E-01 -0.19694792042E+01 -0.95676009991E+02  0.12500000000E+03  0.80419002446E+02 0.  0.
</event>
<event>
 4    1  0.1653896E-001  0.1250000E+03  0.7546771E-02  0.1126479E+00
        -11   -1    0    0    0    0  0.00000000000E+00  0.00000000000E+00  0.12500000000E+03  0.12500000000E+03  0.00000000000E+00 0.  1.
         11   -1    0    0    0    0 -0.00000000000E+00 -0.00000000000E+00 -0.12500000000E+03  0.12500000000E+03  0.00000000000E+00 0. -1.
         24    1    1    2    0    0 -0.37911582330E+02 -0.62822130659E+02  0.61431879918E+02  0.12500000000E+03  0.80419002446E+02 0.  1.
        -24    1    1    2    0    0  0.37911582330E+02  0.62822130659E+02 -0.61431879918E+02  0.12500000000E+03  0.80419002446E+02 0.  0.
</event>
<event>
 4    1  0.1653896E-001  0.1250000E+03  0.7546771E-02  0.1126479E+00
        -11   -1    0    0    0    0  0.00000000000E+00  0.00000000000E+00  0.12500000000E+03  0.12500000000E+03  0.00000000000E+00 0.  1.
         11   -1    0    0    0    0 -0.00000000000E+00 -0.00000000000E+00 -0.12500000000E+03  0.12500000000E+03  0.00000000000E+00 0. -1.
         24    1    1    2    0    0 -0.28552220792E+02 -0.84007013516E+02  0.35852146569E+02  0.12500000000E+03  0.80419002446E+02 0.  1.
        -24    1    1    2    0    0  0.28552220792E+02  0.84007013516E+02 -0.35852146569E+02  0.12500000000E+03  0.80419002446E+02 0. -1.
</event>
<event>
 4    1  0.1653896E-001  0.1250000E+03  0.7546771E-02  0.1126479E+00
        -11   -1    0    0    0    0  0.00000000000E+00  0.00000000000E+00  0.12500000000E+03  0.12500000000E+03  0.00000000000E+00 0.  1.
         11   -1    0    0    0    0 -0.00000000000E+00 -0.00000000000E+00 -0.12500000000E+03  0.12500000000E+03  0.00000000000E+00 0. -1.
         24    1    1    2    0    0  0.51717101329E+01  0.20359335296E+02  0.93362384964E+02  0.12500000000E+03  0.80419002446E+02 0.  0.
        -24    1    1    2    0    0 -0.51717101329E+01 -0.20359335296E+02 -0.93362384964E+02  0.12500000000E+03  0.80419002446E+02 0. -1.
</event>
<event>
 4    1  0.1653896E-001  0.1250000E+03  0.7546771E-02  0.1126479E+00
        -11   -1    0    0    0    0  0.00000000000E+00  0.00000000000E+00  0.12500000000E+03  0.12500000000E+03  0.00000000000E+00 0.  1.
         11   -1    0    0    0    0 -0.00000000000E+00 -0.00000000000E+00 -0.12500000000E+03  0.12500000000E+03  0.00000000000E+00 0. -1.
         24    1    1    2    0    0  0.31652503374E+02  0.82797164171E+02  0.36062898954E+02  0.12500000000E+03  0.80419002446E+02 0.  1.
        -24    1    1    2    0    0 -0.31652503374E+02 -0.82797164171E+02 -0.36062898954E+02  0.12500000000E+03  0.80419002446E+02 0.  0.
</event>
<event>
 4    1  0.1653896E-001  0.1250000E+03  0.7546771E-02  0.1126479E+00
        -11   -1    0    0    0    0  0.00000000000E+00  0.00000000000E+00  0.12500000000E+03  0.12500000000E+03  0.00000000000E+00 0.  1.
         11   -1    0    0    0    0 -0.00000000000E+00 -0.00000000000E+00 -0.12500000000E+03  0.12500000000E+03  0.00000000000E+00 0. -1.
         24    1    1    2    0    0 -0.56013474363E+02 -0.65750456880E+02  0.41196506593E+02  0.12500000000E+03  0.80419002446E+02 0. -1.
        -24    1    1    2    0    0  0.56013474363E+02  0.65750456880E+02 -0.41196506593E+02  0.12500000000E+03  0.80419002446E+02 0.  1.
</event>
<event>
 4    1  0.1653896E-001  0.1250000E+03  0.7546771E-02  0.1126479E+00
        -11   -1    0    0    0    0  0.00000000000E+00  0.00000000000E+00  0.12500000000E+03  0.12500000000E+03  0.00000000000E+00 0.  1.
         11   -1    0    0    0    0 -0.00000000000E+00 -0.00000000000E+00 -0.12500000000E+03  0.12500000000E+03  0.00000000000E+00 0. -1.
         24    1    1    2    0    0 -0.55946332354E+02  0.13128122821E+02  0.76520875145E+02  0.12500000000E+03  0.80419002446E+02 0.  1.
        -24    1    1    2    0    0  0.55946332354E+02 -0.13128122821E+02 -0.76520875145E+02  0.12500000000E+03  0.80419002446E+02 0. -1.
</event>
<event>
 4    1  0.1653896E-001  0.1250000E+03  0.7546771E-02  0.1126479E+00
        -11   -1    0    0    0    0  0.00000000000E+00  0.00000000000E+00  0.12500000000E+03  0.12500000000E+03  0.00000000000E+00 0.  1.
         11   -1    0    0    0    0 -0.00000000000E+00 -0.00000000000E+00 -0.12500000000E+03  0.12500000000E+03  0.00000000000E+00 0. -1.
         24    1    1    2    0    0  0.22080172525E+02  0.40437614623E+01  0.93026329714E+02  0.12500000000E+03  0.80419002446E+02 0.  1.
        -24    1    1    2    0    0 -0.22080172525E+02 -0.40437614623E+01 -0.93026329714E+02  0.12500000000E+03  0.80419002446E+02 0. -1.
</event>
<event>
 4    1  0.1653896E-001  0.1250000E+03  0.7546771E-02  0.1126479E+00
        -11   -1    0    0    0    0  0.00000000000E+00  0.00000000000E+00  0.12500000000E+03  0.12500000000E+03  0.00000000000E+00 0.  1.
         11   -1    0    0    0    0 -0.00000000000E+00 -0.00000000000E+00 -0.12500000000E+03  0.12500000000E+03  0.00000000000E+00 0. -1.
         24    1    1    2    0    0 -0.66155656132E+02 -0.56484613125E+02  0.39883601737E+02  0.12500000000E+03  0.80419002446E+02 0.  1.
        -24    1    1    2    0    0  0.66155656132E+02  0.56484613125E+02 -0.39883601737E+02  0.12500000000E+03  0.80419002446E+02 0. -1.
</event>
<event>
 4    1  0.1653896E-001  0.1250000E+03  0.7546771E-02  0.1126479E+00
        -11   -1    0    0    0    0  0.00000000000E+00  0.00000000000E+00  0.12500000000E+03  0.12500000000E+03  0.00000000000E+00 0.  1.
         11   -1    0    0    0    0 -0.00000000000E+00 -0.00000000000E+00 -0.12500000000E+03  0.12500000000E+03  0.00000000000E+00 0. -1.
         24    1    1    2    0    0  0.39970283433E+02  0.68581356984E+02  0.53448647898E+02  0.12500000000E+03  0.80419002446E+02 0. -1.
        -24    1    1    2    0    0 -0.39970283433E+02 -0.68581356984E+02 -0.53448647898E+02  0.12500000000E+03  0.80419002446E+02 0.  1.
</event>
<event>
 4    1  0.1653896E-001  0.1250000E+03  0.7546771E-02  0.1126479E+00
        -11   -1    0    0    0    0  0.00000000000E+00  0.00000000000E+00  0.12500000000E+03  0.12500000000E+03  0.00000000000E+00 0.  1.
         11   -1    0    0    0    0 -0.00000000000E+00 -0.00000000000E+00 -0.12500000000E+03  0.12500000000E+03  0.00000000000E+00 0. -1.
         24    1    1    2    0    0 -0.63769332328E+02 -0.21034258890E+02  0.68182228278E+02  0.12500000000E+03  0.80419002446E+02 0.  1.
        -24    1    1    2    0    0  0.63769332328E+02  0.21034258890E+02 -0.68182228278E+02  0.12500000000E+03  0.80419002446E+02 0. -1.
</event>
<event>
 4    1  0.1653896E-001  0.1250000E+03  0.7546771E-02  0.1126479E+00
        -11   -1    0    0    0    0  0.00000000000E+00  0.00000000000E+00  0.12500000000E+03  0.12500000000E+03  0.00000000000E+00 0.  1.
         11   -1    0    0    0    0 -0.00000000000E+00 -0.00000000000E+00 -0.12500000000E+03  0.12500000000E+03  0.00000000000E+00 0. -1.
         24    1    1    2    0    0  0.19513855974E+01 -0.29973917010E+02  0.90860004617E+02  0.12500000000E+03  0.80419002446E+02 0.  1.
        -24    1    1    2    0    0 -0.19513855974E+01  0.29973917010E+02 -0.90860004617E+02  0.12500000000E+03  0.80419002446E+02 0. -1.
</event>
<event>
 4    1  0.1653896E-001  0.1250000E+03  0.7546771E-02  0.1126479E+00
        -11   -1    0    0    0    0  0.00000000000E+00  0.00000000000E+00  0.12500000000E+03  0.12500000000E+03  0.00000000000E+00 0.  1.
         11   -1    0    0    0    0 -0.00000000000E+00 -0.00000000000E+00 -0.12500000000E+03  0.12500000000E+03  0.00000000000E+00 0. -1.
         24    1    1    2    0    0 -0.12226988913E+02 -0.27417739487E+02  0.90865572959E+02  0.12500000000E+03  0.80419002446E+02 0.  1.
        -24    1    1    2    0    0  0.12226988913E+02  0.27417739487E+02 -0.90865572959E+02  0.12500000000E+03  0.80419002446E+02 0. -1.
</event>
<event>
 4    1  0.1653896E-001  0.1250000E+03  0.7546771E-02  0.1126479E+00
        -11   -1    0    0    0    0  0.00000000000E+00  0.00000000000E+00  0.12500000000E+03  0.12500000000E+03  0.00000000000E+00 0.  1.
         11   -1    0    0    0    0 -0.00000000000E+00 -0.00000000000E+00 -0.12500000000E+03  0.12500000000E+03  0.00000000000E+00 0. -1.
         24    1    1    2    0    0  0.89219626090E+02  0.33712345348E+02  0.78179368861E+01  0.12500000000E+03  0.80419002446E+02 0.  0.
        -24    1    1    2    0    0 -0.89219626090E+02 -0.33712345348E+02 -0.78179368861E+01  0.12500000000E+03  0.80419002446E+02 0. -1.
</event>
<event>
 4    1  0.1653896E-001  0.1250000E+03  0.7546771E-02  0.1126479E+00
        -11   -1    0    0    0    0  0.00000000000E+00  0.00000000000E+00  0.12500000000E+03  0.12500000000E+03  0.00000000000E+00 0.  1.
         11   -1    0    0    0    0 -0.00000000000E+00 -0.00000000000E+00 -0.12500000000E+03  0.12500000000E+03  0.00000000000E+00 0. -1.
         24    1    1    2    0    0 -0.23715598495E+02  0.37044798778E+02  0.84988454023E+02  0.12500000000E+03  0.80419002446E+02 0.  1.
        -24    1    1    2    0    0  0.23715598495E+02 -0.37044798778E+02 -0.84988454023E+02  0.12500000000E+03  0.80419002446E+02 0. -1.
</event>
<event>
 4    1  0.1653896E-001  0.1250000E+03  0.7546771E-02  0.1126479E+00
        -11   -1    0    0    0    0  0.00000000000E+00  0.00000000000E+00  0.12500000000E+03  0.12500000000E+03  0.00000000000E+00 0.  1.
         11   -1    0    0    0    0 -0.00000000000E+00 -0.00000000000E+00 -0.12500000000E+03  0.12500000000E+03  0.00000000000E+00 0. -1.
         24    1    1    2    0    0 -0.54515974491E+02 -0.78577768459E+02  0.33655423002E+01  0.12500000000E+03  0.80419002446E+02 0.  1.
        -24    1    1    2    0    0  0.54515974491E+02  0.78577768459E+02 -0.33655423002E+01  0.12500000000E+03  0.80419002446E+02 0. -1.
</event>
<event>
 4    1  0.1653896E-001  0.1250000E+03  0.7546771E-02  0.1126479E+00
        -11   -1    0    0    0    0  0.00000000000E+00  0.00000000000E+00  0.12500000000E+03  0.12500000000E+03  0.00000000000E+00 0.  1.
         11   -1    0    0    0    0 -0.00000000000E+00 -0.00000000000E+00 -0.12500000000E+03  0.12500000000E+03  0.00000000000E+00 0. -1.
         24    1    1    2    0    0  0.78339163531E+02 -0.53852559526E+02 -0.10984595371E+02  0.12500000000E+03  0.80419002446E+02 0.  1.
        -24    1    1    2    0    0 -0.78339163531E+02  0.53852559526E+02  0.10984595371E+02  0.12500000000E+03  0.80419002446E+02 0. -1.
</event>
<event>
 4    1  0.1653896E-001  0.1250000E+03  0.7546771E-02  0.1126479E+00
        -11   -1    0    0    0    0  0.00000000000E+00  0.00000000000E+00  0.12500000000E+03  0.12500000000E+03  0.00000000000E+00 0.  1.
         11   -1    0    0    0    0 -0.00000000000E+00 -0.00000000000E+00 -0.12500000000E+03  0.12500000000E+03  0.00000000000E+00 0. -1.
         24    1    1    2    0    0 -0.44186468250E+02  0.75974317574E+02  0.37858197769E+02  0.12500000000E+03  0.80419002446E+02 0.  1.
        -24    1    1    2    0    0  0.44186468250E+02 -0.75974317574E+02 -0.37858197769E+02  0.12500000000E+03  0.80419002446E+02 0. -1.
</event>
<event>
 4    1  0.1653896E-001  0.1250000E+03  0.7546771E-02  0.1126479E+00
        -11   -1    0    0    0    0  0.00000000000E+00  0.00000000000E+00  0.12500000000E+03  0.12500000000E+03  0.00000000000E+00 0.  1.
         11   -1    0    0    0    0 -0.00000000000E+00 -0.00000000000E+00 -0.12500000000E+03  0.12500000000E+03  0.00000000000E+00 0. -1.
         24    1    1    2    0    0 -0.15013102287E+02  0.24414259680E+02  0.91303530762E+02  0.12500000000E+03  0.80419002446E+02 0.  1.
        -24    1    1    2    0    0  0.15013102287E+02 -0.24414259680E+02 -0.91303530762E+02  0.12500000000E+03  0.80419002446E+02 0. -1.
</event>
<event>
 4    1  0.1653896E-001  0.1250000E+03  0.7546771E-02  0.1126479E+00
        -11   -1    0    0    0    0  0.00000000000E+00  0.00000000000E+00  0.12500000000E+03  0.12500000000E+03  0.00000000000E+00 0.  1.
         11   -1    0    0    0    0 -0.00000000000E+00 -0.00000000000E+00 -0.12500000000E+03  0.12500000000E+03  0.00000000000E+00 0. -1.
         24    1    1    2    0    0  0.34769868017E+02 -0.72372999356E+02  0.52067161320E+02  0.12500000000E+03  0.80419002446E+02 0.  0.
        -24    1    1    2    0    0 -0.34769868017E+02  0.72372999356E+02 -0.52067161320E+02  0.12500000000E+03  0.80419002446E+02 0. -1.
</event>
<event>
 4    1  0.1653896E-001  0.1250000E+03  0.7546771E-02  0.1126479E+00
        -11   -1    0    0    0    0  0.00000000000E+00  0.00000000000E+00  0.12500000000E+03  0.12500000000E+03  0.00000000000E+00 0.  1.
         11   -1    0    0    0    0 -0.00000000000E+00 -0.00000000000E+00 -0.12500000000E+03  0.12500000000E+03  0.00000000000E+00 0. -1.
         24    1    1    2    0    0  0.38082150712E+02 -0.35633375385E+02  0.80235879763E+02  0.12500000000E+03  0.80419002446E+02 0.  1.
        -24    1    1    2    0    0 -0.38082150712E+02  0.35633375385E+02 -0.80235879763E+02  0.12500000000E+03  0.80419002446E+02 0. -1.
</event>
<event>
 4    1  0.1653896E-001  0.1250000E+03  0.7546771E-02  0.1126479E+00
        -11   -1    0    0    0    0  0.00000000000E+00  0.00000000000E+00  0.12500000000E+03  0.12500000000E+03  0.00000000000E+00 0.  1.
         11   -1    0    0    0    0 -0.00000000000E+00 -0.00000000000E+00 -0.12500000000E+03  0.12500000000E+03  0.00000000000E+00 0. -1.
         24    1    1    2    0    0 -0.52091015034E+02  0.61050580542E+02  0.52126162470E+02  0.12500000000E+03  0.80419002446E+02 0. -1.
        -24    1    1    2    0    0  0.52091015034E+02 -0.61050580542E+02 -0.52126162470E+02  0.12500000000E+03  0.80419002446E+02 0.  0.
</event>
<event>
 4    1  0.1653896E-001  0.1250000E+03  0.7546771E-02  0.1126479E+00
        -11   -1    0    0    0    0  0.00000000000E+00  0.00000000000E+00  0.12500000000E+03  0.12500000000E+03  0.00000000000E+00 0.  1.
         11   -1    0    0    0    0 -0.00000000000E+00 -0.00000000000E+00 -0.12500000000E+03  0.12500000000E+03  0.00000000000E+00 0. -1.
         24    1    1    2    0    0 -0.18592928700E+02  0.52385946842E+02  0.77896082196E+02  0.12500000000E+03  0.80419002446E+02 0.  1.
        -24    1    1    2    0    0  0.18592928700E+02 -0.52385946842E+02 -0.77896082196E+02  0.12500000000E+03  0.80419002446E+02 0. -1.
</event>
<event>
 4    1  0.1653896E-001  0.1250000E+03  0.7546771E-02  0.1126479E+00
        -11   -1    0    0    0    0  0.00000000000E+00  0.00000000000E+00  0.12500000000E+03  0.12500000000E+03  0.00000000000E+00 0.  1.
         11   -1    0    0    0    0 -0.00000000000E+00 -0.00000000000E+00 -0.12500000000E+03  0.12500000000E+03  0.00000000000E+00 0. -1.
         24    1    1    2    0    0 -0.52882571583E+02 -0.36548621651E+02  0.70890168033E+02  0.12500000000E+03  0.80419002446E+02 0.  1.
        -24    1    1    2    0    0  0.52882571583E+02  0.36548621651E+02 -0.70890168033E+02  0.12500000000E+03  0.80419002446E+02 0. -1.
</event>
<event>
 4    1  0.1653896E-001  0.1250000E+03  0.7546771E-02  0.1126479E+00
        -11   -1    0    0    0    0  0.00000000000E+00  0.00000000000E+00  0.12500000000E+03  0.12500000000E+03  0.00000000000E+00 0.  1.
         11   -1    0    0    0    0 -0.00000000000E+00 -0.00000000000E+00 -0.12500000000E+03  0.12500000000E+03  0.00000000000E+00 0. -1.
         24    1    1    2    0    0 -0.63455153818E+02 -0.47808542931E+02  0.53343891144E+02  0.12500000000E+03  0.80419002446E+02 0. -1.
        -24    1    1    2    0    0  0.63455153818E+02  0.47808542931E+02 -0.53343891144E+02  0.12500000000E+03  0.80419002446E+02 0.  1.
</event>
<event>
 4    1  0.1653896E-001  0.1250000E+03  0.7546771E-02  0.1126479E+00
        -11   -1    0    0    0    0  0.00000000000E+00  0.00000000000E+00  0.12500000000E+03  0.12500000000E+03  0.00000000000E+00 0.  1.
         11   -1    0    0    0    0 -0.00000000000E+00 -0.00000000000E+00 -0.12500000000E+03  0.12500000000E+03  0.00000000000E+00 0. -1.
         24    1    1    2    0    0  0.48881830657E+02 -0.19950560008E+02  0.79814320974E+02  0.12500000000E+03  0.80419002446E+02 0. -1.
        -24    1    1    2    0    0 -0.48881830657E+02  0.19950560008E+02 -0.79814320974E+02  0.12500000000E+03  0.80419002446E+02 0.  0.
</event>
<event>
 4    1  0.1653896E-001  0.1250000E+03  0.7546771E-02  0.1126479E+00
        -11   -1    0    0    0    0  0.00000000000E+00  0.00000000000E+00  0.12500000000E+03  0.12500000000E+03  0.00000000000E+00 0.  1.
         11   -1    0    0    0    0 -0.00000000000E+00 -0.00000000000E+00 -0.12500000000E+03  0.12500000000E+03  0.00000000000E+00 0. -1.
         24    1    1    2    0    0 -0.24418679196E+02 -0.15792997164E+02  0.91170682747E+02  0.12500000000E+03  0.80419002446E+02 0.  1.
        -24    1    1    2    0    0  0.24418679196E+02  0.15792997164E+02 -0.91170682747E+02  0.12500000000E+03  0.80419002446E+02 0. -1.
</event>
<event>
 4    1  0.1653896E-001  0.1250000E+03  0.7546771E-02  0.1126479E+00
        -11   -1    0    0    0    0  0.00000000000E+00  0.00000000000E+00  0.12500000000E+03  0.12500000000E+03  0.00000000000E+00 0.  1.
         11   -1    0    0    0    0 -0.00000000000E+00 -0.00000000000E+00 -0.12500000000E+03  0.12500000000E+03  0.00000000000E+00 0. -1.
         24    1    1    2    0    0 -0.78005372012E+01  0.34612118131E+02  0.88875963812E+02  0.12500000000E+03  0.80419002446E+02 0.  1.
        -24    1    1    2    0    0  0.78005372012E+01 -0.34612118131E+02 -0.88875963812E+02  0.12500000000E+03  0.80419002446E+02 0. -1.
</event>
<event>
 4    1  0.1653896E-001  0.1250000E+03  0.7546771E-02  0.1126479E+00
        -11   -1    0    0    0    0  0.00000000000E+00  0.00000000000E+00  0.12500000000E+03  0.12500000000E+03  0.00000000000E+00 0.  1.
         11   -1    0    0    0    0 -0.00000000000E+00 -0.00000000000E+00 -0.12500000000E+03  0.12500000000E+03  0.00000000000E+00 0. -1.
         24    1    1    2    0    0 -0.21685433669E+02  0.65540624023E+02  0.66271808598E+02  0.12500000000E+03  0.80419002446E+02 0.  1.
        -24    1    1    2    0    0  0.21685433669E+02 -0.65540624023E+02 -0.66271808598E+02  0.12500000000E+03  0.80419002446E+02 0. -1.
</event>
<event>
 4    1  0.1653896E-001  0.1250000E+03  0.7546771E-02  0.1126479E+00
        -11   -1    0    0    0    0  0.00000000000E+00  0.00000000000E+00  0.12500000000E+03  0.12500000000E+03  0.00000000000E+00 0.  1.
         11   -1    0    0    0    0 -0.00000000000E+00 -0.00000000000E+00 -0.12500000000E+03  0.12500000000E+03  0.00000000000E+00 0. -1.
         24    1    1    2    0    0  0.56825115476E+01 -0.38722097761E+02  0.87327499982E+02  0.12500000000E+03  0.80419002446E+02 0.  1.
        -24    1    1    2    0    0 -0.56825115476E+01  0.38722097761E+02 -0.87327499982E+02  0.12500000000E+03  0.80419002446E+02 0. -1.
</event>
<event>
 4    1  0.1653896E-001  0.1250000E+03  0.7546771E-02  0.1126479E+00
        -11   -1    0    0    0    0  0.00000000000E+00  0.00000000000E+00  0.12500000000E+03  0.12500000000E+03  0.00000000000E+00 0.  1.
         11   -1    0    0    0    0 -0.00000000000E+00 -0.00000000000E+00 -0.12500000000E+03  0.12500000000E+03  0.00000000000E+00 0. -1.
         24    1    1    2    0    0  0.22343645054E+02  0.62167390823E+02  0.69236992205E+02  0.12500000000E+03  0.80419002446E+02 0.  1.
        -24    1    1    2    0    0 -0.22343645054E+02 -0.62167390823E+02 -0.69236992205E+02  0.12500000000E+03  0.80419002446E+02 0. -1.
</event>
<event>
 4    1  0.1653896E-001  0.1250000E+03  0.7546771E-02  0.1126479E+00
        -11   -1    0    0    0    0  0.00000000000E+00  0.00000000000E+00  0.12500000000E+03  0.12500000000E+03  0.00000000000E+00 0.  1.
         11   -1    0    0    0    0 -0.00000000000E+00 -0.00000000000E+00 -0.12500000000E+03  0.12500000000E+03  0.00000000000E+00 0. -1.
         24    1    1    2    0    0 -0.60173642776E+02 -0.36883564040E+02  0.64625996816E+02  0.12500000000E+03  0.80419002446E+02 0.  1.
        -24    1    1    2    0    0  0.60173642776E+02  0.36883564040E+02 -0.64625996816E+02  0.12500000000E+03  0.80419002446E+02 0. -1.
</event>
<event>
 4    1  0.1653896E-001  0.1250000E+03  0.7546771E-02  0.1126479E+00
        -11   -1    0    0    0    0  0.00000000000E+00  0.00000000000E+00  0.12500000000E+03  0.12500000000E+03  0.00000000000E+00 0.  1.
         11   -1    0    0    0    0 -0.00000000000E+00 -0.00000000000E+00 -0.12500000000E+03  0.12500000000E+03  0.00000000000E+00 0. -1.
         24    1    1    2    0    0  0.52656150562E+02  0.34061223529E+02  0.72283794210E+02  0.12500000000E+03  0.80419002446E+02 0.  1.
        -24    1    1    2    0    0 -0.52656150562E+02 -0.34061223529E+02 -0.72283794210E+02  0.12500000000E+03  0.80419002446E+02 0. -1.
</event>
<event>
 4    1  0.1653896E-001  0.1250000E+03  0.7546771E-02  0.1126479E+00
        -11   -1    0    0    0    0  0.00000000000E+00  0.00000000000E+00  0.12500000000E+03  0.12500000000E+03  0.00000000000E+00 0.  1.
         11   -1    0    0    0    0 -0.00000000000E+00 -0.00000000000E+00 -0.12500000000E+03  0.12500000000E+03  0.00000000000E+00 0. -1.
         24    1    1    2    0    0 -0.73932216094E+02  0.24061836622E+02  0.55792826487E+02  0.12500000000E+03  0.80419002446E+02 0.  1.
        -24    1    1    2    0    0  0.73932216094E+02 -0.24061836622E+02 -0.55792826487E+02  0.12500000000E+03  0.80419002446E+02 0.  0.
</event>
<event>
 4    1  0.1653896E-001  0.1250000E+03  0.7546771E-02  0.1126479E+00
        -11   -1    0    0    0    0  0.00000000000E+00  0.00000000000E+00  0.12500000000E+03  0.12500000000E+03  0.00000000000E+00 0.  1.
         11   -1    0    0    0    0 -0.00000000000E+00 -0.00000000000E+00 -0.12500000000E+03  0.12500000000E+03  0.00000000000E+00 0. -1.
         24    1    1    2    0    0  0.29787001077E+02 -0.11141919472E+02  0.90257278061E+02  0.12500000000E+03  0.80419002446E+02 0.  1.
        -24    1    1    2    0    0 -0.29787001077E+02  0.11141919472E+02 -0.90257278061E+02  0.12500000000E+03  0.80419002446E+02 0. -1.
</event>
<event>
 4    1  0.1653896E-001  0.1250000E+03  0.7546771E-02  0.1126479E+00
        -11   -1    0    0    0    0  0.00000000000E+00  0.00000000000E+00  0.12500000000E+03  0.12500000000E+03  0.00000000000E+00 0.  1.
         11   -1    0    0    0    0 -0.00000000000E+00 -0.00000000000E+00 -0.12500000000E+03  0.12500000000E+03  0.00000000000E+00 0. -1.
         24    1    1    2    0    0 -0.55278923835E+02 -0.37388019060E+02  0.68586883994E+02  0.12500000000E+03  0.80419002446E+02 0.  0.
        -24    1    1    2    0    0  0.55278923835E+02  0.37388019060E+02 -0.68586883994E+02  0.12500000000E+03  0.80419002446E+02 0.  0.
</event>
<event>
 4    1  0.1653896E-001  0.1250000E+03  0.7546771E-02  0.1126479E+00
        -11   -1    0    0    0    0  0.00000000000E+00  0.00000000000E+00  0.12500000000E+03  0.12500000000E+03  0.00000000000E+00 0.  1.
         11   -1    0    0    0    0 -0.00000000000E+00 -0.00000000000E+00 -0.12500000000E+03  0.12500000000E+03  0.00000000000E+00 0. -1.
         24    1    1    2    0    0 -0.92218111788E+02  0.24679365820E+02 -0.66732905399E+01  0.12500000000E+03  0.80419002446E+02 0.  0.
        -24    1    1    2    0    0  0.92218111788E+02 -0.24679365820E+02  0.66732905399E+01  0.12500000000E+03  0.80419002446E+02 0.  0.
</event>
<event>
 4    1  0.1653896E-001  0.1250000E+03  0.7546771E-02  0.1126479E+00
        -11   -1    0    0    0    0  0.00000000000E+00  0.00000000000E+00  0.12500000000E+03  0.12500000000E+03  0.00000000000E+00 0.  1.
         11   -1    0    0    0    0 -0.00000000000E+00 -0.00000000000E+00 -0.12500000000E+03  0.12500000000E+03  0.00000000000E+00 0. -1.
         24    1    1    2    0    0 -0.38837795920E+02  0.40858952112E+02  0.77330173193E+02  0.12500000000E+03  0.80419002446E+02 0.  1.
        -24    1    1    2    0    0  0.38837795920E+02 -0.40858952112E+02 -0.77330173193E+02  0.12500000000E+03  0.80419002446E+02 0. -1.
</event>
<event>
 4    1  0.1653896E-001  0.1250000E+03  0.7546771E-02  0.1126479E+00
        -11   -1    0    0    0    0  0.00000000000E+00  0.00000000000E+00  0.12500000000E+03  0.12500000000E+03  0.00000000000E+00 0.  1.
         11   -1    0    0    0    0 -0.00000000000E+00 -0.00000000000E+00 -0.12500000000E+03  0.12500000000E+03  0.00000000000E+00 0. -1.
         24    1    1    2    0    0 -0.15602129408E+02 -0.10414427248E+01  0.94410131875E+02  0.12500000000E+03  0.80419002446E+02 0.  0.
        -24    1    1    2    0    0  0.15602129408E+02  0.10414427248E+01 -0.94410131875E+02  0.12500000000E+03  0.80419002446E+02 0. -1.
</event>
<event>
 4    1  0.1653896E-001  0.1250000E+03  0.7546771E-02  0.1126479E+00
        -11   -1    0    0    0    0  0.00000000000E+00  0.00000000000E+00  0.12500000000E+03  0.12500000000E+03  0.00000000000E+00 0.  1.
         11   -1    0    0    0    0 -0.00000000000E+00 -0.00000000000E+00 -0.12500000000E+03  0.12500000000E+03  0.00000000000E+00 0. -1.
         24    1    1    2    0    0  0.89489889759E+02 -0.24704996448E+02 -0.23216520564E+02  0.12500000000E+03  0.80419002446E+02 0.  0.
        -24    1    1    2    0    0 -0.89489889759E+02  0.24704996448E+02  0.23216520564E+02  0.12500000000E+03  0.80419002446E+02 0. -1.
</event>
<event>
 4    1  0.1653896E-001  0.1250000E+03  0.7546771E-02  0.1126479E+00
        -11   -1    0    0    0    0  0.00000000000E+00  0.00000000000E+00  0.12500000000E+03  0.12500000000E+03  0.00000000000E+00 0.  1.
         11   -1    0    0    0    0 -0.00000000000E+00 -0.00000000000E+00 -0.12500000000E+03  0.12500000000E+03  0.00000000000E+00 0. -1.
         24    1    1    2    0    0 -0.18001561054E+02 -0.93973305441E+02  0.16570183047E+01  0.12500000000E+03  0.80419002446E+02 0.  0.
        -24    1    1    2    0    0  0.18001561054E+02  0.93973305441E+02 -0.16570183047E+01  0.12500000000E+03  0.80419002446E+02 0. -1.
</event>
<event>
 4    1  0.1653896E-001  0.1250000E+03  0.7546771E-02  0.1126479E+00
        -11   -1    0    0    0    0  0.00000000000E+00  0.00000000000E+00  0.12500000000E+03  0.12500000000E+03  0.00000000000E+00 0.  1.
         11   -1    0    0    0    0 -0.00000000000E+00 -0.00000000000E+00 -0.12500000000E+03  0.12500000000E+03  0.00000000000E+00 0. -1.
         24    1    1    2    0    0  0.22577565241E+02  0.56955434983E+02  0.73512692913E+02  0.12500000000E+03  0.80419002446E+02 0. -1.
        -24    1    1    2    0    0 -0.22577565241E+02 -0.56955434983E+02 -0.73512692913E+02  0.12500000000E+03  0.80419002446E+02 0.  1.
</event>
<event>
 4    1  0.1653896E-001  0.1250000E+03  0.7546771E-02  0.1126479E+00
        -11   -1    0    0    0    0  0.00000000000E+00  0.00000000000E+00  0.12500000000E+03  0.12500000000E+03  0.00000000000E+00 0.  1.
         11   -1    0    0    0    0 -0.00000000000E+00 -0.00000000000E+00 -0.12500000000E+03  0.12500000000E+03  0.00000000000E+00 0. -1.
         24    1    1    2    0    0 -0.70571683424E+02 -0.91544428473E+01  0.63981385734E+02  0.12500000000E+03  0.80419002446E+02 0.  1.
        -24    1    1    2    0    0  0.70571683424E+02  0.91544428473E+01 -0.63981385734E+02  0.12500000000E+03  0.80419002446E+02 0. -1.
</event>
<event>
 4    1  0.1653896E-001  0.1250000E+03  0.7546771E-02  0.1126479E+00
        -11   -1    0    0    0    0  0.00000000000E+00  0.00000000000E+00  0.12500000000E+03  0.12500000000E+03  0.00000000000E+00 0.  1.
         11   -1    0    0    0    0 -0.00000000000E+00 -0.00000000000E+00 -0.12500000000E+03  0.12500000000E+03  0.00000000000E+00 0. -1.
         24    1    1    2    0    0 -0.17596251323E+02  0.26455741368E+02  0.90267656077E+02  0.12500000000E+03  0.80419002446E+02 0.  0.
        -24    1    1    2    0    0  0.17596251323E+02 -0.26455741368E+02 -0.90267656077E+02  0.12500000000E+03  0.80419002446E+02 0.  0.
</event>
<event>
 4    1  0.1653896E-001  0.1250000E+03  0.7546771E-02  0.1126479E+00
        -11   -1    0    0    0    0  0.00000000000E+00  0.00000000000E+00  0.12500000000E+03  0.12500000000E+03  0.00000000000E+00 0.  1.
         11   -1    0    0    0    0 -0.00000000000E+00 -0.00000000000E+00 -0.12500000000E+03  0.12500000000E+03  0.00000000000E+00 0. -1.
         24    1    1    2    0    0  0.67646243892E+02  0.17852501623E+02  0.65292096908E+02  0.12500000000E+03  0.80419002446E+02 0.  1.
        -24    1    1    2    0    0 -0.67646243892E+02 -0.17852501623E+02 -0.65292096908E+02  0.12500000000E+03  0.80419002446E+02 0. -1.
</event>
<event>
 4    1  0.1653896E-001  0.1250000E+03  0.7546771E-02  0.1126479E+00
        -11   -1    0    0    0    0  0.00000000000E+00  0.00000000000E+00  0.12500000000E+03  0.12500000000E+03  0.00000000000E+00 0.  1.
         11   -1    0    0    0    0 -0.00000000000E+00 -0.00000000000E+00 -0.12500000000E+03  0.12500000000E+03  0.00000000000E+00 0. -1.
         24    1    1    2    0    0  0.49414664517E+02  0.18483387755E+02  0.79839459877E+02  0.12500000000E+03  0.80419002446E+02 0.  1.
        -24    1    1    2    0    0 -0.49414664517E+02 -0.18483387755E+02 -0.79839459877E+02  0.12500000000E+03  0.80419002446E+02 0. -1.
</event>
<event>
 4    1  0.1653896E-001  0.1250000E+03  0.7546771E-02  0.1126479E+00
        -11   -1    0    0    0    0  0.00000000000E+00  0.00000000000E+00  0.12500000000E+03  0.12500000000E+03  0.00000000000E+00 0.  1.
         11   -1    0    0    0    0 -0.00000000000E+00 -0.00000000000E+00 -0.12500000000E+03  0.12500000000E+03  0.00000000000E+00 0. -1.
         24    1    1    2    0    0 -0.77269350040E+02 -0.28318673018E+02  0.48839372933E+02  0.12500000000E+03  0.80419002446E+02 0.  1.
        -24    1    1    2    0    0  0.77269350040E+02  0.28318673018E+02 -0.48839372933E+02  0.12500000000E+03  0.80419002446E+02 0. -1.
</event>
<event>
 4    1  0.1653896E-001  0.1250000E+03  0.7546771E-02  0.1126479E+00
        -11   -1    0    0    0    0  0.00000000000E+00  0.00000000000E+00  0.12500000000E+03  0.12500000000E+03  0.00000000000E+00 0.  1.
         11   -1    0    0    0    0 -0.00000000000E+00 -0.00000000000E+00 -0.12500000000E+03  0.12500000000E+03  0.00000000000E+00 0. -1.
         24    1    1    2    0    0 -0.57067674286E+01 -0.85992052756E+02  0.41600285022E+02  0.12500000000E+03  0.80419002446E+02 0.  1.
        -24    1    1    2    0    0  0.57067674286E+01  0.85992052756E+02 -0.41600285022E+02  0.12500000000E+03  0.80419002446E+02 0. -1.
</event>
<event>
 4    1  0.1653896E-001  0.1250000E+03  0.7546771E-02  0.1126479E+00
        -11   -1    0    0    0    0  0.00000000000E+00  0.00000000000E+00  0.12500000000E+03  0.12500000000E+03  0.00000000000E+00 0.  1.
         11   -1    0    0    0    0 -0.00000000000E+00 -0.00000000000E+00 -0.12500000000E+03  0.12500000000E+03  0.00000000000E+00 0. -1.
         24    1    1    2    0    0  0.67797518890E+01 -0.13825074255E+02  0.94449385026E+02  0.12500000000E+03  0.80419002446E+02 0.  1.
        -24    1    1    2    0    0 -0.67797518890E+01  0.13825074255E+02 -0.94449385026E+02  0.12500000000E+03  0.80419002446E+02 0. -1.
</event>
<event>
 4    1  0.1653896E-001  0.1250000E+03  0.7546771E-02  0.1126479E+00
        -11   -1    0    0    0    0  0.00000000000E+00  0.00000000000E+00  0.12500000000E+03  0.12500000000E+03  0.00000000000E+00 0.  1.
         11   -1    0    0    0    0 -0.00000000000E+00 -0.00000000000E+00 -0.12500000000E+03  0.12500000000E+03  0.00000000000E+00 0. -1.
         24    1    1    2    0    0 -0.68276796317E+00 -0.45837859212E+02  0.84001241279E+02  0.12500000000E+03  0.80419002446E+02 0.  1.
        -24    1    1    2    0    0  0.68276796317E+00  0.45837859212E+02 -0.84001241279E+02  0.12500000000E+03  0.80419002446E+02 0. -1.
</event>
<event>
 4    1  0.1653896E-001  0.1250000E+03  0.7546771E-02  0.1126479E+00
        -11   -1    0    0    0    0  0.00000000000E+00  0.00000000000E+00  0.12500000000E+03  0.12500000000E+03  0.00000000000E+00 0.  1.
         11   -1    0    0    0    0 -0.00000000000E+00 -0.00000000000E+00 -0.12500000000E+03  0.12500000000E+03  0.00000000000E+00 0. -1.
         24    1    1    2    0    0 -0.75498960389E+02  0.36303668205E+02  0.46257266464E+02  0.12500000000E+03  0.80419002446E+02 0.  1.
        -24    1    1    2    0    0  0.75498960389E+02 -0.36303668205E+02 -0.46257266464E+02  0.12500000000E+03  0.80419002446E+02 0. -1.
</event>
<event>
 4    1  0.1653896E-001  0.1250000E+03  0.7546771E-02  0.1126479E+00
        -11   -1    0    0    0    0  0.00000000000E+00  0.00000000000E+00  0.12500000000E+03  0.12500000000E+03  0.00000000000E+00 0.  1.
         11   -1    0    0    0    0 -0.00000000000E+00 -0.00000000000E+00 -0.12500000000E+03  0.12500000000E+03  0.00000000000E+00 0. -1.
         24    1    1    2    0    0  0.20760148363E+02  0.43253018704E+02  0.82800825229E+02  0.12500000000E+03  0.80419002446E+02 0.  1.
        -24    1    1    2    0    0 -0.20760148363E+02 -0.43253018704E+02 -0.82800825229E+02  0.12500000000E+03  0.80419002446E+02 0. -1.
</event>
<event>
 4    1  0.1653896E-001  0.1250000E+03  0.7546771E-02  0.1126479E+00
        -11   -1    0    0    0    0  0.00000000000E+00  0.00000000000E+00  0.12500000000E+03  0.12500000000E+03  0.00000000000E+00 0.  1.
         11   -1    0    0    0    0 -0.00000000000E+00 -0.00000000000E+00 -0.12500000000E+03  0.12500000000E+03  0.00000000000E+00 0. -1.
         24    1    1    2    0    0 -0.32682417740E+01 -0.43389370209E+02  0.85231832048E+02  0.12500000000E+03  0.80419002446E+02 0.  1.
        -24    1    1    2    0    0  0.32682417740E+01  0.43389370209E+02 -0.85231832048E+02  0.12500000000E+03  0.80419002446E+02 0. -1.
</event>
<event>
 4    1  0.1653896E-001  0.1250000E+03  0.7546771E-02  0.1126479E+00
        -11   -1    0    0    0    0  0.00000000000E+00  0.00000000000E+00  0.12500000000E+03  0.12500000000E+03  0.00000000000E+00 0.  1.
         11   -1    0    0    0    0 -0.00000000000E+00 -0.00000000000E+00 -0.12500000000E+03  0.12500000000E+03  0.00000000000E+00 0. -1.
         24    1    1    2    0    0 -0.15664957879E+01 -0.47898534616E+02  0.82831518869E+02  0.12500000000E+03  0.80419002446E+02 0.  1.
        -24    1    1    2    0    0  0.15664957879E+01  0.47898534616E+02 -0.82831518869E+02  0.12500000000E+03  0.80419002446E+02 0. -1.
</event>
<event>
 4    1  0.1653896E-001  0.1250000E+03  0.7546771E-02  0.1126479E+00
        -11   -1    0    0    0    0  0.00000000000E+00  0.00000000000E+00  0.12500000000E+03  0.12500000000E+03  0.00000000000E+00 0.  1.
         11   -1    0    0    0    0 -0.00000000000E+00 -0.00000000000E+00 -0.12500000000E+03  0.12500000000E+03  0.00000000000E+00 0. -1.
         24    1    1    2    0    0 -0.36174764187E+02 -0.13210010745E+02  0.87605171638E+02  0.12500000000E+03  0.80419002446E+02 0.  1.
        -24    1    1    2    0    0  0.36174764187E+02  0.13210010745E+02 -0.87605171638E+02  0.12500000000E+03  0.80419002446E+02 0. -1.
</event>
<event>
 4    1  0.1653896E-001  0.1250000E+03  0.7546771E-02  0.1126479E+00
        -11   -1    0    0    0    0  0.00000000000E+00  0.00000000000E+00  0.12500000000E+03  0.12500000000E+03  0.00000000000E+00 0.  1.
         11   -1    0    0    0    0 -0.00000000000E+00 -0.00000000000E+00 -0.12500000000E+03  0.12500000000E+03  0.00000000000E+00 0. -1.
         24    1    1    2    0    0 -0.17493435416E+02  0.23251388751E+02  0.91165435797E+02  0.12500000000E+03  0.80419002446E+02 0.  1.
        -24    1    1    2    0    0  0.17493435416E+02 -0.23251388751E+02 -0.91165435797E+02  0.12500000000E+03  0.80419002446E+02 0. -1.
</event>
<event>
 4    1  0.1653896E-001  0.1250000E+03  0.7546771E-02  0.1126479E+00
        -11   -1    0    0    0    0  0.00000000000E+00  0.00000000000E+00  0.12500000000E+03  0.12500000000E+03  0.00000000000E+00 0.  1.
         11   -1    0    0    0    0 -0.00000000000E+00 -0.00000000000E+00 -0.12500000000E+03  0.12500000000E+03  0.00000000000E+00 0. -1.
         24    1    1    2    0    0 -0.46252247726E+02 -0.13605909215E+02  0.82664338504E+02  0.12500000000E+03  0.80419002446E+02 0.  1.
        -24    1    1    2    0    0  0.46252247726E+02  0.13605909215E+02 -0.82664338504E+02  0.12500000000E+03  0.80419002446E+02 0. -1.
</event>
<event>
 4    1  0.1653896E-001  0.1250000E+03  0.7546771E-02  0.1126479E+00
        -11   -1    0    0    0    0  0.00000000000E+00  0.00000000000E+00  0.12500000000E+03  0.12500000000E+03  0.00000000000E+00 0.  1.
         11   -1    0    0    0    0 -0.00000000000E+00 -0.00000000000E+00 -0.12500000000E+03  0.12500000000E+03  0.00000000000E+00 0. -1.
         24    1    1    2    0    0  0.10123544156E+02 -0.21579997780E+02  0.92680103556E+02  0.12500000000E+03  0.80419002446E+02 0.  1.
        -24    1    1    2    0    0 -0.10123544156E+02  0.21579997780E+02 -0.92680103556E+02  0.12500000000E+03  0.80419002446E+02 0. -1.
</event>
<event>
 4    1  0.1653896E-001  0.1250000E+03  0.7546771E-02  0.1126479E+00
        -11   -1    0    0    0    0  0.00000000000E+00  0.00000000000E+00  0.12500000000E+03  0.12500000000E+03  0.00000000000E+00 0.  1.
         11   -1    0    0    0    0 -0.00000000000E+00 -0.00000000000E+00 -0.12500000000E+03  0.12500000000E+03  0.00000000000E+00 0. -1.
         24    1    1    2    0    0 -0.53586425211E+02  0.65865626834E+02  0.44136133503E+02  0.12500000000E+03  0.80419002446E+02 0.  1.
        -24    1    1    2    0    0  0.53586425211E+02 -0.65865626834E+02 -0.44136133503E+02  0.12500000000E+03  0.80419002446E+02 0. -1.
</event>
<event>
 4    1  0.1653896E-001  0.1250000E+03  0.7546771E-02  0.1126479E+00
        -11   -1    0    0    0    0  0.00000000000E+00  0.00000000000E+00  0.12500000000E+03  0.12500000000E+03  0.00000000000E+00 0.  1.
         11   -1    0    0    0    0 -0.00000000000E+00 -0.00000000000E+00 -0.12500000000E+03  0.12500000000E+03  0.00000000000E+00 0. -1.
         24    1    1    2    0    0  0.71500386374E+01 -0.64957703967E+02  0.69908209020E+02  0.12500000000E+03  0.80419002446E+02 0.  1.
        -24    1    1    2    0    0 -0.71500386374E+01  0.64957703967E+02 -0.69908209020E+02  0.12500000000E+03  0.80419002446E+02 0. -1.
</event>
<event>
 4    1  0.1653896E-001  0.1250000E+03  0.7546771E-02  0.1126479E+00
        -11   -1    0    0    0    0  0.00000000000E+00  0.00000000000E+00  0.12500000000E+03  0.12500000000E+03  0.00000000000E+00 0.  1.
         11   -1    0    0    0    0 -0.00000000000E+00 -0.00000000000E+00 -0.12500000000E+03  0.12500000000E+03  0.00000000000E+00 0. -1.
         24    1    1    2    0    0  0.55763210217E+01 -0.39314274482E+01  0.95452776637E+02  0.12500000000E+03  0.80419002446E+02 0.  1.
        -24    1    1    2    0    0 -0.55763210217E+01  0.39314274482E+01 -0.95452776637E+02  0.12500000000E+03  0.80419002446E+02 0.  0.
</event>
<event>
 4    1  0.1653896E-001  0.1250000E+03  0.7546771E-02  0.1126479E+00
        -11   -1    0    0    0    0  0.00000000000E+00  0.00000000000E+00  0.12500000000E+03  0.12500000000E+03  0.00000000000E+00 0.  1.
         11   -1    0    0    0    0 -0.00000000000E+00 -0.00000000000E+00 -0.12500000000E+03  0.12500000000E+03  0.00000000000E+00 0. -1.
         24    1    1    2    0    0 -0.60441490145E+02 -0.62741477469E+02  0.39599461105E+02  0.12500000000E+03  0.80419002446E+02 0.  1.
        -24    1    1    2    0    0  0.60441490145E+02  0.62741477469E+02 -0.39599461105E+02  0.12500000000E+03  0.80419002446E+02 0. -1.
</event>
<event>
 4    1  0.1653896E-001  0.1250000E+03  0.7546771E-02  0.1126479E+00
        -11   -1    0    0    0    0  0.00000000000E+00  0.00000000000E+00  0.12500000000E+03  0.12500000000E+03  0.00000000000E+00 0.  1.
         11   -1    0    0    0    0 -0.00000000000E+00 -0.00000000000E+00 -0.12500000000E+03  0.12500000000E+03  0.00000000000E+00 0. -1.
         24    1    1    2    0    0 -0.12944535941E+02 -0.50189071205E+02  0.80444267456E+02  0.12500000000E+03  0.80419002446E+02 0.  1.
        -24    1    1    2    0    0  0.12944535941E+02  0.50189071205E+02 -0.80444267456E+02  0.12500000000E+03  0.80419002446E+02 0. -1.
</event>
<event>
 4    1  0.1653896E-001  0.1250000E+03  0.7546771E-02  0.1126479E+00
        -11   -1    0    0    0    0  0.00000000000E+00  0.00000000000E+00  0.12500000000E+03  0.12500000000E+03  0.00000000000E+00 0.  1.
         11   -1    0    0    0    0 -0.00000000000E+00 -0.00000000000E+00 -0.12500000000E+03  0.12500000000E+03  0.00000000000E+00 0. -1.
         24    1    1    2    0    0  0.42833750539E+02 -0.13675495558E+02  0.84475053605E+02  0.12500000000E+03  0.80419002446E+02 0.  1.
        -24    1    1    2    0    0 -0.42833750539E+02  0.13675495558E+02 -0.84475053605E+02  0.12500000000E+03  0.80419002446E+02 0. -1.
</event>
<event>
 4    1  0.1653896E-001  0.1250000E+03  0.7546771E-02  0.1126479E+00
        -11   -1    0    0    0    0  0.00000000000E+00  0.00000000000E+00  0.12500000000E+03  0.12500000000E+03  0.00000000000E+00 0.  1.
         11   -1    0    0    0    0 -0.00000000000E+00 -0.00000000000E+00 -0.12500000000E+03  0.12500000000E+03  0.00000000000E+00 0. -1.
         24    1    1    2    0    0 -0.30624539738E+02 -0.15471454301E+02  0.89333956105E+02  0.12500000000E+03  0.80419002446E+02 0.  1.
        -24    1    1    2    0    0  0.30624539738E+02  0.15471454301E+02 -0.89333956105E+02  0.12500000000E+03  0.80419002446E+02 0. -1.
</event>
<event>
 4    1  0.1653896E-001  0.1250000E+03  0.7546771E-02  0.1126479E+00
        -11   -1    0    0    0    0  0.00000000000E+00  0.00000000000E+00  0.12500000000E+03  0.12500000000E+03  0.00000000000E+00 0.  1.
         11   -1    0    0    0    0 -0.00000000000E+00 -0.00000000000E+00 -0.12500000000E+03  0.12500000000E+03  0.00000000000E+00 0. -1.
         24    1    1    2    0    0  0.87828727850E+01  0.94818677987E+02 -0.94901789304E+01  0.12500000000E+03  0.80419002446E+02 0. -1.
        -24    1    1    2    0    0 -0.87828727850E+01 -0.94818677987E+02  0.94901789304E+01  0.12500000000E+03  0.80419002446E+02 0.  1.
</event>
<event>
 4    1  0.1653896E-001  0.1250000E+03  0.7546771E-02  0.1126479E+00
        -11   -1    0    0    0    0  0.00000000000E+00  0.00000000000E+00  0.12500000000E+03  0.12500000000E+03  0.00000000000E+00 0.  1.
         11   -1    0    0    0    0 -0.00000000000E+00 -0.00000000000E+00 -0.12500000000E+03  0.12500000000E+03  0.00000000000E+00 0. -1.
         24    1    1    2    0    0  0.66226034312E+02 -0.16833601966E+02  0.66996464606E+02  0.12500000000E+03  0.80419002446E+02 0.  0.
        -24    1    1    2    0    0 -0.66226034312E+02  0.16833601966E+02 -0.66996464606E+02  0.12500000000E+03  0.80419002446E+02 0. -1.
</event>
<event>
 4    1  0.1653896E-001  0.1250000E+03  0.7546771E-02  0.1126479E+00
        -11   -1    0    0    0    0  0.00000000000E+00  0.00000000000E+00  0.12500000000E+03  0.12500000000E+03  0.00000000000E+00 0.  1.
         11   -1    0    0    0    0 -0.00000000000E+00 -0.00000000000E+00 -0.12500000000E+03  0.12500000000E+03  0.00000000000E+00 0. -1.
         24    1    1    2    0    0 -0.48751872990E+02 -0.37926038059E+02  0.73093464569E+02  0.12500000000E+03  0.80419002446E+02 0.  1.
        -24    1    1    2    0    0  0.48751872990E+02  0.37926038059E+02 -0.73093464569E+02  0.12500000000E+03  0.80419002446E+02 0. -1.
</event>
<event>
 4    1  0.1653896E-001  0.1250000E+03  0.7546771E-02  0.1126479E+00
        -11   -1    0    0    0    0  0.00000000000E+00  0.00000000000E+00  0.12500000000E+03  0.12500000000E+03  0.00000000000E+00 0.  1.
         11   -1    0    0    0    0 -0.00000000000E+00 -0.00000000000E+00 -0.12500000000E+03  0.12500000000E+03  0.00000000000E+00 0. -1.
         24    1    1    2    0    0 -0.72979011324E+02  0.42128839278E+01  0.61758396682E+02  0.12500000000E+03  0.80419002446E+02 0.  1.
        -24    1    1    2    0    0  0.72979011324E+02 -0.42128839278E+01 -0.61758396682E+02  0.12500000000E+03  0.80419002446E+02 0. -1.
</event>
<event>
 4    1  0.1653896E-001  0.1250000E+03  0.7546771E-02  0.1126479E+00
        -11   -1    0    0    0    0  0.00000000000E+00  0.00000000000E+00  0.12500000000E+03  0.12500000000E+03  0.00000000000E+00 0.  1.
         11   -1    0    0    0    0 -0.00000000000E+00 -0.00000000000E+00 -0.12500000000E+03  0.12500000000E+03  0.00000000000E+00 0. -1.
         24    1    1    2    0    0  0.36665825510E+02  0.12184563352E+02  0.87549629932E+02  0.12500000000E+03  0.80419002446E+02 0.  1.
        -24    1    1    2    0    0 -0.36665825510E+02 -0.12184563352E+02 -0.87549629932E+02  0.12500000000E+03  0.80419002446E+02 0. -1.
</event>
<event>
 4    1  0.1653896E-001  0.1250000E+03  0.7546771E-02  0.1126479E+00
        -11   -1    0    0    0    0  0.00000000000E+00  0.00000000000E+00  0.12500000000E+03  0.12500000000E+03  0.00000000000E+00 0.  1.
         11   -1    0    0    0    0 -0.00000000000E+00 -0.00000000000E+00 -0.12500000000E+03  0.12500000000E+03  0.00000000000E+00 0. -1.
         24    1    1    2    0    0  0.45208517827E+02 -0.53052624840E+02  0.65569756437E+02  0.12500000000E+03  0.80419002446E+02 0.  0.
        -24    1    1    2    0    0 -0.45208517827E+02  0.53052624840E+02 -0.65569756437E+02  0.12500000000E+03  0.80419002446E+02 0. -1.
</event>
<event>
 4    1  0.1653896E-001  0.1250000E+03  0.7546771E-02  0.1126479E+00
        -11   -1    0    0    0    0  0.00000000000E+00  0.00000000000E+00  0.12500000000E+03  0.12500000000E+03  0.00000000000E+00 0.  1.
         11   -1    0    0    0    0 -0.00000000000E+00 -0.00000000000E+00 -0.12500000000E+03  0.12500000000E+03  0.00000000000E+00 0. -1.
         24    1    1    2    0    0 -0.11385261435E+01  0.88947847787E+01  0.95275236067E+02  0.12500000000E+03  0.80419002446E+02 0.  1.
        -24    1    1    2    0    0  0.11385261435E+01 -0.88947847787E+01 -0.95275236067E+02  0.12500000000E+03  0.80419002446E+02 0.  0.
</event>
<event>
 4    1  0.1653896E-001  0.1250000E+03  0.7546771E-02  0.1126479E+00
        -11   -1    0    0    0    0  0.00000000000E+00  0.00000000000E+00  0.12500000000E+03  0.12500000000E+03  0.00000000000E+00 0.  1.
         11   -1    0    0    0    0 -0.00000000000E+00 -0.00000000000E+00 -0.12500000000E+03  0.12500000000E+03  0.00000000000E+00 0. -1.
         24    1    1    2    0    0  0.89341958908E+01  0.44062691485E+02  0.84477472787E+02  0.12500000000E+03  0.80419002446E+02 0.  1.
        -24    1    1    2    0    0 -0.89341958908E+01 -0.44062691485E+02 -0.84477472787E+02  0.12500000000E+03  0.80419002446E+02 0. -1.
</event>
<event>
 4    1  0.1653896E-001  0.1250000E+03  0.7546771E-02  0.1126479E+00
        -11   -1    0    0    0    0  0.00000000000E+00  0.00000000000E+00  0.12500000000E+03  0.12500000000E+03  0.00000000000E+00 0.  1.
         11   -1    0    0    0    0 -0.00000000000E+00 -0.00000000000E+00 -0.12500000000E+03  0.12500000000E+03  0.00000000000E+00 0. -1.
         24    1    1    2    0    0 -0.84888685017E+02 -0.40064851860E+01  0.43995946156E+02  0.12500000000E+03  0.80419002446E+02 0.  1.
        -24    1    1    2    0    0  0.84888685017E+02  0.40064851860E+01 -0.43995946156E+02  0.12500000000E+03  0.80419002446E+02 0. -1.
</event>
<event>
 4    1  0.1653896E-001  0.1250000E+03  0.7546771E-02  0.1126479E+00
        -11   -1    0    0    0    0  0.00000000000E+00  0.00000000000E+00  0.12500000000E+03  0.12500000000E+03  0.00000000000E+00 0.  1.
         11   -1    0    0    0    0 -0.00000000000E+00 -0.00000000000E+00 -0.12500000000E+03  0.12500000000E+03  0.00000000000E+00 0. -1.
         24    1    1    2    0    0  0.12493866172E+02 -0.14341743414E+02  0.93787002029E+02  0.12500000000E+03  0.80419002446E+02 0.  1.
        -24    1    1    2    0    0 -0.12493866172E+02  0.14341743414E+02 -0.93787002029E+02  0.12500000000E+03  0.80419002446E+02 0.  0.
</event>
<event>
 4    1  0.1653896E-001  0.1250000E+03  0.7546771E-02  0.1126479E+00
        -11   -1    0    0    0    0  0.00000000000E+00  0.00000000000E+00  0.12500000000E+03  0.12500000000E+03  0.00000000000E+00 0.  1.
         11   -1    0    0    0    0 -0.00000000000E+00 -0.00000000000E+00 -0.12500000000E+03  0.12500000000E+03  0.00000000000E+00 0. -1.
         24    1    1    2    0    0 -0.74895803488E+02  0.21329537942E+02  0.55618823044E+02  0.12500000000E+03  0.80419002446E+02 0.  1.
        -24    1    1    2    0    0  0.74895803488E+02 -0.21329537942E+02 -0.55618823044E+02  0.12500000000E+03  0.80419002446E+02 0. -1.
</event>
<event>
 4    1  0.1653896E-001  0.1250000E+03  0.7546771E-02  0.1126479E+00
        -11   -1    0    0    0    0  0.00000000000E+00  0.00000000000E+00  0.12500000000E+03  0.12500000000E+03  0.00000000000E+00 0.  1.
         11   -1    0    0    0    0 -0.00000000000E+00 -0.00000000000E+00 -0.12500000000E+03  0.12500000000E+03  0.00000000000E+00 0. -1.
         24    1    1    2    0    0 -0.45624207456E+02  0.63587054437E+02 -0.55071791761E+02  0.12500000000E+03  0.80419002446E+02 0.  0.
        -24    1    1    2    0    0  0.45624207456E+02 -0.63587054437E+02  0.55071791761E+02  0.12500000000E+03  0.80419002446E+02 0.  0.
</event>
<event>
 4    1  0.1653896E-001  0.1250000E+03  0.7546771E-02  0.1126479E+00
        -11   -1    0    0    0    0  0.00000000000E+00  0.00000000000E+00  0.12500000000E+03  0.12500000000E+03  0.00000000000E+00 0.  1.
         11   -1    0    0    0    0 -0.00000000000E+00 -0.00000000000E+00 -0.12500000000E+03  0.12500000000E+03  0.00000000000E+00 0. -1.
         24    1    1    2    0    0 -0.18339567304E+02 -0.57773602876E+01  0.93744687449E+02  0.12500000000E+03  0.80419002446E+02 0.  1.
        -24    1    1    2    0    0  0.18339567304E+02  0.57773602876E+01 -0.93744687449E+02  0.12500000000E+03  0.80419002446E+02 0. -1.
</event>
<event>
 4    1  0.1653896E-001  0.1250000E+03  0.7546771E-02  0.1126479E+00
        -11   -1    0    0    0    0  0.00000000000E+00  0.00000000000E+00  0.12500000000E+03  0.12500000000E+03  0.00000000000E+00 0.  1.
         11   -1    0    0    0    0 -0.00000000000E+00 -0.00000000000E+00 -0.12500000000E+03  0.12500000000E+03  0.00000000000E+00 0. -1.
         24    1    1    2    0    0  0.37511470893E+02  0.43286936544E+02  0.76661037834E+02  0.12500000000E+03  0.80419002446E+02 0.  1.
        -24    1    1    2    0    0 -0.37511470893E+02 -0.43286936544E+02 -0.76661037834E+02  0.12500000000E+03  0.80419002446E+02 0. -1.
</event>
<event>
 4    1  0.1653896E-001  0.1250000E+03  0.7546771E-02  0.1126479E+00
        -11   -1    0    0    0    0  0.00000000000E+00  0.00000000000E+00  0.12500000000E+03  0.12500000000E+03  0.00000000000E+00 0.  1.
         11   -1    0    0    0    0 -0.00000000000E+00 -0.00000000000E+00 -0.12500000000E+03  0.12500000000E+03  0.00000000000E+00 0. -1.
         24    1    1    2    0    0  0.56754967484E+02  0.23594026722E+02  0.73348344320E+02  0.12500000000E+03  0.80419002446E+02 0.  1.
        -24    1    1    2    0    0 -0.56754967484E+02 -0.23594026722E+02 -0.73348344320E+02  0.12500000000E+03  0.80419002446E+02 0. -1.
</event>
<event>
 4    1  0.1653896E-001  0.1250000E+03  0.7546771E-02  0.1126479E+00
        -11   -1    0    0    0    0  0.00000000000E+00  0.00000000000E+00  0.12500000000E+03  0.12500000000E+03  0.00000000000E+00 0.  1.
         11   -1    0    0    0    0 -0.00000000000E+00 -0.00000000000E+00 -0.12500000000E+03  0.12500000000E+03  0.00000000000E+00 0. -1.
         24    1    1    2    0    0  0.21484168485E+02  0.64444251762E+02  0.67402915107E+02  0.12500000000E+03  0.80419002446E+02 0.  1.
        -24    1    1    2    0    0 -0.21484168485E+02 -0.64444251762E+02 -0.67402915107E+02  0.12500000000E+03  0.80419002446E+02 0. -1.
</event>
<event>
 4    1  0.1653896E-001  0.1250000E+03  0.7546771E-02  0.1126479E+00
        -11   -1    0    0    0    0  0.00000000000E+00  0.00000000000E+00  0.12500000000E+03  0.12500000000E+03  0.00000000000E+00 0.  1.
         11   -1    0    0    0    0 -0.00000000000E+00 -0.00000000000E+00 -0.12500000000E+03  0.12500000000E+03  0.00000000000E+00 0. -1.
         24    1    1    2    0    0 -0.44353412567E+02  0.27525159797E+02  0.80205513635E+02  0.12500000000E+03  0.80419002446E+02 0.  1.
        -24    1    1    2    0    0  0.44353412567E+02 -0.27525159797E+02 -0.80205513635E+02  0.12500000000E+03  0.80419002446E+02 0. -1.
</event>
<event>
 4    1  0.1653896E-001  0.1250000E+03  0.7546771E-02  0.1126479E+00
        -11   -1    0    0    0    0  0.00000000000E+00  0.00000000000E+00  0.12500000000E+03  0.12500000000E+03  0.00000000000E+00 0.  1.
         11   -1    0    0    0    0 -0.00000000000E+00 -0.00000000000E+00 -0.12500000000E+03  0.12500000000E+03  0.00000000000E+00 0. -1.
         24    1    1    2    0    0 -0.84845032967E+02 -0.43849161474E+02  0.60295492830E+01  0.12500000000E+03  0.80419002446E+02 0.  0.
        -24    1    1    2    0    0  0.84845032967E+02  0.43849161474E+02 -0.60295492830E+01  0.12500000000E+03  0.80419002446E+02 0.  0.
</event>
<event>
 4    1  0.1653896E-001  0.1250000E+03  0.7546771E-02  0.1126479E+00
        -11   -1    0    0    0    0  0.00000000000E+00  0.00000000000E+00  0.12500000000E+03  0.12500000000E+03  0.00000000000E+00 0.  1.
         11   -1    0    0    0    0 -0.00000000000E+00 -0.00000000000E+00 -0.12500000000E+03  0.12500000000E+03  0.00000000000E+00 0. -1.
         24    1    1    2    0    0 -0.10826027634E+02  0.30257994103E+02  0.90138975833E+02  0.12500000000E+03  0.80419002446E+02 0.  1.
        -24    1    1    2    0    0  0.10826027634E+02 -0.30257994103E+02 -0.90138975833E+02  0.12500000000E+03  0.80419002446E+02 0. -1.
</event>
<event>
 4    1  0.1653896E-001  0.1250000E+03  0.7546771E-02  0.1126479E+00
        -11   -1    0    0    0    0  0.00000000000E+00  0.00000000000E+00  0.12500000000E+03  0.12500000000E+03  0.00000000000E+00 0.  1.
         11   -1    0    0    0    0 -0.00000000000E+00 -0.00000000000E+00 -0.12500000000E+03  0.12500000000E+03  0.00000000000E+00 0. -1.
         24    1    1    2    0    0  0.80920975336E+01 -0.22367263105E+02  0.92693082505E+02  0.12500000000E+03  0.80419002446E+02 0.  0.
        -24    1    1    2    0    0 -0.80920975336E+01  0.22367263105E+02 -0.92693082505E+02  0.12500000000E+03  0.80419002446E+02 0.  0.
</event>
<event>
 4    1  0.1653896E-001  0.1250000E+03  0.7546771E-02  0.1126479E+00
        -11   -1    0    0    0    0  0.00000000000E+00  0.00000000000E+00  0.12500000000E+03  0.12500000000E+03  0.00000000000E+00 0.  1.
         11   -1    0    0    0    0 -0.00000000000E+00 -0.00000000000E+00 -0.12500000000E+03  0.12500000000E+03  0.00000000000E+00 0. -1.
         24    1    1    2    0    0 -0.82134867023E+02 -0.18390245184E+02  0.45535113339E+02  0.12500000000E+03  0.80419002446E+02 0.  1.
        -24    1    1    2    0    0  0.82134867023E+02  0.18390245184E+02 -0.45535113339E+02  0.12500000000E+03  0.80419002446E+02 0. -1.
</event>
<event>
 4    1  0.1653896E-001  0.1250000E+03  0.7546771E-02  0.1126479E+00
        -11   -1    0    0    0    0  0.00000000000E+00  0.00000000000E+00  0.12500000000E+03  0.12500000000E+03  0.00000000000E+00 0.  1.
         11   -1    0    0    0    0 -0.00000000000E+00 -0.00000000000E+00 -0.12500000000E+03  0.12500000000E+03  0.00000000000E+00 0. -1.
         24    1    1    2    0    0 -0.53337761186E+02  0.17786731831E+01  0.79433642740E+02  0.12500000000E+03  0.80419002446E+02 0.  1.
        -24    1    1    2    0    0  0.53337761186E+02 -0.17786731831E+01 -0.79433642740E+02  0.12500000000E+03  0.80419002446E+02 0. -1.
</event>
<event>
 4    1  0.1653896E-001  0.1250000E+03  0.7546771E-02  0.1126479E+00
        -11   -1    0    0    0    0  0.00000000000E+00  0.00000000000E+00  0.12500000000E+03  0.12500000000E+03  0.00000000000E+00 0.  1.
         11   -1    0    0    0    0 -0.00000000000E+00 -0.00000000000E+00 -0.12500000000E+03  0.12500000000E+03  0.00000000000E+00 0. -1.
         24    1    1    2    0    0 -0.80948526484E+01 -0.32858276288E+01  0.95296698490E+02  0.12500000000E+03  0.80419002446E+02 0.  0.
        -24    1    1    2    0    0  0.80948526484E+01  0.32858276288E+01 -0.95296698490E+02  0.12500000000E+03  0.80419002446E+02 0. -1.
</event>
<event>
 4    1  0.1653896E-001  0.1250000E+03  0.7546771E-02  0.1126479E+00
        -11   -1    0    0    0    0  0.00000000000E+00  0.00000000000E+00  0.12500000000E+03  0.12500000000E+03  0.00000000000E+00 0.  1.
         11   -1    0    0    0    0 -0.00000000000E+00 -0.00000000000E+00 -0.12500000000E+03  0.12500000000E+03  0.00000000000E+00 0. -1.
         24    1    1    2    0    0  0.56895814196E+02  0.40360390966E+02  0.65510985442E+02  0.12500000000E+03  0.80419002446E+02 0.  1.
        -24    1    1    2    0    0 -0.56895814196E+02 -0.40360390966E+02 -0.65510985442E+02  0.12500000000E+03  0.80419002446E+02 0. -1.
</event>
<event>
 4    1  0.1653896E-001  0.1250000E+03  0.7546771E-02  0.1126479E+00
        -11   -1    0    0    0    0  0.00000000000E+00  0.00000000000E+00  0.12500000000E+03  0.12500000000E+03  0.00000000000E+00 0.  1.
         11   -1    0    0    0    0 -0.00000000000E+00 -0.00000000000E+00 -0.12500000000E+03  0.12500000000E+03  0.00000000000E+00 0. -1.
         24    1    1    2    0    0  0.17507267213E+02  0.57324568994E+02  0.74600090014E+02  0.12500000000E+03  0.80419002446E+02 0.  1.
        -24    1    1    2    0    0 -0.17507267213E+02 -0.57324568994E+02 -0.74600090014E+02  0.12500000000E+03  0.80419002446E+02 0. -1.
</event>
<event>
 4    1  0.1653896E-001  0.1250000E+03  0.7546771E-02  0.1126479E+00
        -11   -1    0    0    0    0  0.00000000000E+00  0.00000000000E+00  0.12500000000E+03  0.12500000000E+03  0.00000000000E+00 0.  1.
         11   -1    0    0    0    0 -0.00000000000E+00 -0.00000000000E+00 -0.12500000000E+03  0.12500000000E+03  0.00000000000E+00 0. -1.
         24    1    1    2    0    0 -0.45812351441E+02  0.33928323099E+01  0.83949396603E+02  0.12500000000E+03  0.80419002446E+02 0. -1.
        -24    1    1    2    0    0  0.45812351441E+02 -0.33928323099E+01 -0.83949396603E+02  0.12500000000E+03  0.80419002446E+02 0.  0.
</event>
<event>
 4    1  0.1653896E-001  0.1250000E+03  0.7546771E-02  0.1126479E+00
        -11   -1    0    0    0    0  0.00000000000E+00  0.00000000000E+00  0.12500000000E+03  0.12500000000E+03  0.00000000000E+00 0.  1.
         11   -1    0    0    0    0 -0.00000000000E+00 -0.00000000000E+00 -0.12500000000E+03  0.12500000000E+03  0.00000000000E+00 0. -1.
         24    1    1    2    0    0 -0.25050776556E+02 -0.36922265109E+01  0.92285481539E+02  0.12500000000E+03  0.80419002446E+02 0.  1.
        -24    1    1    2    0    0  0.25050776556E+02  0.36922265109E+01 -0.92285481539E+02  0.12500000000E+03  0.80419002446E+02 0. -1.
</event>
<event>
 4    1  0.1653896E-001  0.1250000E+03  0.7546771E-02  0.1126479E+00
        -11   -1    0    0    0    0  0.00000000000E+00  0.00000000000E+00  0.12500000000E+03  0.12500000000E+03  0.00000000000E+00 0.  1.
         11   -1    0    0    0    0 -0.00000000000E+00 -0.00000000000E+00 -0.12500000000E+03  0.12500000000E+03  0.00000000000E+00 0. -1.
         24    1    1    2    0    0 -0.33146014961E+02 -0.40423824577E+02  0.80156348123E+02  0.12500000000E+03  0.80419002446E+02 0.  1.
        -24    1    1    2    0    0  0.33146014961E+02  0.40423824577E+02 -0.80156348123E+02  0.12500000000E+03  0.80419002446E+02 0. -1.
</event>
<event>
 4    1  0.1653896E-001  0.1250000E+03  0.7546771E-02  0.1126479E+00
        -11   -1    0    0    0    0  0.00000000000E+00  0.00000000000E+00  0.12500000000E+03  0.12500000000E+03  0.00000000000E+00 0.  1.
         11   -1    0    0    0    0 -0.00000000000E+00 -0.00000000000E+00 -0.12500000000E+03  0.12500000000E+03  0.00000000000E+00 0. -1.
         24    1    1    2    0    0 -0.81278993167E+02 -0.95838006417E+01  0.49594960234E+02  0.12500000000E+03  0.80419002446E+02 0.  1.
        -24    1    1    2    0    0  0.81278993167E+02  0.95838006417E+01 -0.49594960234E+02  0.12500000000E+03  0.80419002446E+02 0. -1.
</event>
<event>
 4    1  0.1653896E-001  0.1250000E+03  0.7546771E-02  0.1126479E+00
        -11   -1    0    0    0    0  0.00000000000E+00  0.00000000000E+00  0.12500000000E+03  0.12500000000E+03  0.00000000000E+00 0.  1.
         11   -1    0    0    0    0 -0.00000000000E+00 -0.00000000000E+00 -0.12500000000E+03  0.12500000000E+03  0.00000000000E+00 0. -1.
         24    1    1    2    0    0  0.47856333943E+02  0.11290785114E+02  0.82097950758E+02  0.12500000000E+03  0.80419002446E+02 0.  1.
        -24    1    1    2    0    0 -0.47856333943E+02 -0.11290785114E+02 -0.82097950758E+02  0.12500000000E+03  0.80419002446E+02 0. -1.
</event>
<event>
 4    1  0.1653896E-001  0.1250000E+03  0.7546771E-02  0.1126479E+00
        -11   -1    0    0    0    0  0.00000000000E+00  0.00000000000E+00  0.12500000000E+03  0.12500000000E+03  0.00000000000E+00 0.  1.
         11   -1    0    0    0    0 -0.00000000000E+00 -0.00000000000E+00 -0.12500000000E+03  0.12500000000E+03  0.00000000000E+00 0. -1.
         24    1    1    2    0    0  0.23447642120E+01  0.29682731083E+02  0.90946256668E+02  0.12500000000E+03  0.80419002446E+02 0.  1.
        -24    1    1    2    0    0 -0.23447642120E+01 -0.29682731083E+02 -0.90946256668E+02  0.12500000000E+03  0.80419002446E+02 0. -1.
</event>
<event>
 4    1  0.1653896E-001  0.1250000E+03  0.7546771E-02  0.1126479E+00
        -11   -1    0    0    0    0  0.00000000000E+00  0.00000000000E+00  0.12500000000E+03  0.12500000000E+03  0.00000000000E+00 0.  1.
         11   -1    0    0    0    0 -0.00000000000E+00 -0.00000000000E+00 -0.12500000000E+03  0.12500000000E+03  0.00000000000E+00 0. -1.
         24    1    1    2    0    0  0.29931460116E+02 -0.58968272067E+01  0.90703468345E+02  0.12500000000E+03  0.80419002446E+02 0.  1.
        -24    1    1    2    0    0 -0.29931460116E+02  0.58968272067E+01 -0.90703468345E+02  0.12500000000E+03  0.80419002446E+02 0. -1.
</event>
<event>
 4    1  0.1653896E-001  0.1250000E+03  0.7546771E-02  0.1126479E+00
        -11   -1    0    0    0    0  0.00000000000E+00  0.00000000000E+00  0.12500000000E+03  0.12500000000E+03  0.00000000000E+00 0.  1.
         11   -1    0    0    0    0 -0.00000000000E+00 -0.00000000000E+00 -0.12500000000E+03  0.12500000000E+03  0.00000000000E+00 0. -1.
         24    1    1    2    0    0  0.11832403547E+02 -0.60721745933E+02  0.73011285722E+02  0.12500000000E+03  0.80419002446E+02 0.  1.
        -24    1    1    2    0    0 -0.11832403547E+02  0.60721745933E+02 -0.73011285722E+02  0.12500000000E+03  0.80419002446E+02 0. -1.
</event>
<event>
 4    1  0.1653896E-001  0.1250000E+03  0.7546771E-02  0.1126479E+00
        -11   -1    0    0    0    0  0.00000000000E+00  0.00000000000E+00  0.12500000000E+03  0.12500000000E+03  0.00000000000E+00 0.  1.
         11   -1    0    0    0    0 -0.00000000000E+00 -0.00000000000E+00 -0.12500000000E+03  0.12500000000E+03  0.00000000000E+00 0. -1.
         24    1    1    2    0    0 -0.13755969098E+02  0.11752685550E+02  0.93970376940E+02  0.12500000000E+03  0.80419002446E+02 0.  1.
        -24    1    1    2    0    0  0.13755969098E+02 -0.11752685550E+02 -0.93970376940E+02  0.12500000000E+03  0.80419002446E+02 0.  0.
</event>
<event>
 4    1  0.1653896E-001  0.1250000E+03  0.7546771E-02  0.1126479E+00
        -11   -1    0    0    0    0  0.00000000000E+00  0.00000000000E+00  0.12500000000E+03  0.12500000000E+03  0.00000000000E+00 0.  1.
         11   -1    0    0    0    0 -0.00000000000E+00 -0.00000000000E+00 -0.12500000000E+03  0.12500000000E+03  0.00000000000E+00 0. -1.
         24    1    1    2    0    0  0.33874832257E+02  0.17423292493E+01  0.89483205541E+02  0.12500000000E+03  0.80419002446E+02 0.  1.
        -24    1    1    2    0    0 -0.33874832257E+02 -0.17423292493E+01 -0.89483205541E+02  0.12500000000E+03  0.80419002446E+02 0. -1.
</event>
<event>
 4    1  0.1653896E-001  0.1250000E+03  0.7546771E-02  0.1126479E+00
        -11   -1    0    0    0    0  0.00000000000E+00  0.00000000000E+00  0.12500000000E+03  0.12500000000E+03  0.00000000000E+00 0.  1.
         11   -1    0    0    0    0 -0.00000000000E+00 -0.00000000000E+00 -0.12500000000E+03  0.12500000000E+03  0.00000000000E+00 0. -1.
         24    1    1    2    0    0 -0.89385853304E+02  0.26546678228E+01  0.34072070872E+02  0.12500000000E+03  0.80419002446E+02 0.  1.
        -24    1    1    2    0    0  0.89385853304E+02 -0.26546678228E+01 -0.34072070872E+02  0.12500000000E+03  0.80419002446E+02 0. -1.
</event>
<event>
 4    1  0.1653896E-001  0.1250000E+03  0.7546771E-02  0.1126479E+00
        -11   -1    0    0    0    0  0.00000000000E+00  0.00000000000E+00  0.12500000000E+03  0.12500000000E+03  0.00000000000E+00 0.  1.
         11   -1    0    0    0    0 -0.00000000000E+00 -0.00000000000E+00 -0.12500000000E+03  0.12500000000E+03  0.00000000000E+00 0. -1.
         24    1    1    2    0    0 -0.46052593310E+02 -0.42090551943E+02  0.72562580799E+02  0.12500000000E+03  0.80419002446E+02 0.  1.
        -24    1    1    2    0    0  0.46052593310E+02  0.42090551943E+02 -0.72562580799E+02  0.12500000000E+03  0.80419002446E+02 0. -1.
</event>
<event>
 4    1  0.1653896E-001  0.1250000E+03  0.7546771E-02  0.1126479E+00
        -11   -1    0    0    0    0  0.00000000000E+00  0.00000000000E+00  0.12500000000E+03  0.12500000000E+03  0.00000000000E+00 0.  1.
         11   -1    0    0    0    0 -0.00000000000E+00 -0.00000000000E+00 -0.12500000000E+03  0.12500000000E+03  0.00000000000E+00 0. -1.
         24    1    1    2    0    0  0.53195658647E+02  0.50232272143E+02  0.61682451168E+02  0.12500000000E+03  0.80419002446E+02 0.  1.
        -24    1    1    2    0    0 -0.53195658647E+02 -0.50232272143E+02 -0.61682451168E+02  0.12500000000E+03  0.80419002446E+02 0. -1.
</event>
<event>
 4    1  0.1653896E-001  0.1250000E+03  0.7546771E-02  0.1126479E+00
        -11   -1    0    0    0    0  0.00000000000E+00  0.00000000000E+00  0.12500000000E+03  0.12500000000E+03  0.00000000000E+00 0.  1.
         11   -1    0    0    0    0 -0.00000000000E+00 -0.00000000000E+00 -0.12500000000E+03  0.12500000000E+03  0.00000000000E+00 0. -1.
         24    1    1    2    0    0 -0.12047025096E+01  0.70374297356E+02  0.64836648657E+02  0.12500000000E+03  0.80419002446E+02 0.  1.
        -24    1    1    2    0    0  0.12047025096E+01 -0.70374297356E+02 -0.64836648657E+02  0.12500000000E+03  0.80419002446E+02 0. -1.
</event>
<event>
 4    1  0.1653896E-001  0.1250000E+03  0.7546771E-02  0.1126479E+00
        -11   -1    0    0    0    0  0.00000000000E+00  0.00000000000E+00  0.12500000000E+03  0.12500000000E+03  0.00000000000E+00 0.  1.
         11   -1    0    0    0    0 -0.00000000000E+00 -0.00000000000E+00 -0.12500000000E+03  0.12500000000E+03  0.00000000000E+00 0. -1.
         24    1    1    2    0    0 -0.63918378189E+02 -0.27498066957E+02  0.65696889492E+02  0.12500000000E+03  0.80419002446E+02 0.  1.
        -24    1    1    2    0    0  0.63918378189E+02  0.27498066957E+02 -0.65696889492E+02  0.12500000000E+03  0.80419002446E+02 0. -1.
</event>
<event>
 4    1  0.1653896E-001  0.1250000E+03  0.7546771E-02  0.1126479E+00
        -11   -1    0    0    0    0  0.00000000000E+00  0.00000000000E+00  0.12500000000E+03  0.12500000000E+03  0.00000000000E+00 0.  1.
         11   -1    0    0    0    0 -0.00000000000E+00 -0.00000000000E+00 -0.12500000000E+03  0.12500000000E+03  0.00000000000E+00 0. -1.
         24    1    1    2    0    0 -0.35328916227E+02 -0.63107884105E+02  0.62666152648E+02  0.12500000000E+03  0.80419002446E+02 0.  1.
        -24    1    1    2    0    0  0.35328916227E+02  0.63107884105E+02 -0.62666152648E+02  0.12500000000E+03  0.80419002446E+02 0. -1.
</event>
<event>
 4    1  0.1653896E-001  0.1250000E+03  0.7546771E-02  0.1126479E+00
        -11   -1    0    0    0    0  0.00000000000E+00  0.00000000000E+00  0.12500000000E+03  0.12500000000E+03  0.00000000000E+00 0.  1.
         11   -1    0    0    0    0 -0.00000000000E+00 -0.00000000000E+00 -0.12500000000E+03  0.12500000000E+03  0.00000000000E+00 0. -1.
         24    1    1    2    0    0  0.19354014182E+02 -0.75290195600E+02  0.55808535433E+02  0.12500000000E+03  0.80419002446E+02 0.  1.
        -24    1    1    2    0    0 -0.19354014182E+02  0.75290195600E+02 -0.55808535433E+02  0.12500000000E+03  0.80419002446E+02 0. -1.
</event>
<event>
 4    1  0.1653896E-001  0.1250000E+03  0.7546771E-02  0.1126479E+00
        -11   -1    0    0    0    0  0.00000000000E+00  0.00000000000E+00  0.12500000000E+03  0.12500000000E+03  0.00000000000E+00 0.  1.
         11   -1    0    0    0    0 -0.00000000000E+00 -0.00000000000E+00 -0.12500000000E+03  0.12500000000E+03  0.00000000000E+00 0. -1.
         24    1    1    2    0    0 -0.63629405608E+02  0.12968996510E+02 -0.70291449815E+02  0.12500000000E+03  0.80419002446E+02 0. -1.
        -24    1    1    2    0    0  0.63629405608E+02 -0.12968996510E+02  0.70291449815E+02  0.12500000000E+03  0.80419002446E+02 0.  1.
</event>
<event>
 4    1  0.1653896E-001  0.1250000E+03  0.7546771E-02  0.1126479E+00
        -11   -1    0    0    0    0  0.00000000000E+00  0.00000000000E+00  0.12500000000E+03  0.12500000000E+03  0.00000000000E+00 0.  1.
         11   -1    0    0    0    0 -0.00000000000E+00 -0.00000000000E+00 -0.12500000000E+03  0.12500000000E+03  0.00000000000E+00 0. -1.
         24    1    1    2    0    0  0.29204016115E+02 -0.60152594280E+01  0.90932536215E+02  0.12500000000E+03  0.80419002446E+02 0.  1.
        -24    1    1    2    0    0 -0.29204016115E+02  0.60152594280E+01 -0.90932536215E+02  0.12500000000E+03  0.80419002446E+02 0. -1.
</event>
<event>
 4    1  0.1653896E-001  0.1250000E+03  0.7546771E-02  0.1126479E+00
        -11   -1    0    0    0    0  0.00000000000E+00  0.00000000000E+00  0.12500000000E+03  0.12500000000E+03  0.00000000000E+00 0.  1.
         11   -1    0    0    0    0 -0.00000000000E+00 -0.00000000000E+00 -0.12500000000E+03  0.12500000000E+03  0.00000000000E+00 0. -1.
         24    1    1    2    0    0 -0.59690764644E+02  0.46677835694E+02  0.58446354179E+02  0.12500000000E+03  0.80419002446E+02 0. -1.
        -24    1    1    2    0    0  0.59690764644E+02 -0.46677835694E+02 -0.58446354179E+02  0.12500000000E+03  0.80419002446E+02 0. -1.
</event>
<event>
 4    1  0.1653896E-001  0.1250000E+03  0.7546771E-02  0.1126479E+00
        -11   -1    0    0    0    0  0.00000000000E+00  0.00000000000E+00  0.12500000000E+03  0.12500000000E+03  0.00000000000E+00 0.  1.
         11   -1    0    0    0    0 -0.00000000000E+00 -0.00000000000E+00 -0.12500000000E+03  0.12500000000E+03  0.00000000000E+00 0. -1.
         24    1    1    2    0    0 -0.11230189430E+02  0.30336586050E+02  0.90063080326E+02  0.12500000000E+03  0.80419002446E+02 0.  1.
        -24    1    1    2    0    0  0.11230189430E+02 -0.30336586050E+02 -0.90063080326E+02  0.12500000000E+03  0.80419002446E+02 0. -1.
</event>
<event>
 4    1  0.1653896E-001  0.1250000E+03  0.7546771E-02  0.1126479E+00
        -11   -1    0    0    0    0  0.00000000000E+00  0.00000000000E+00  0.12500000000E+03  0.12500000000E+03  0.00000000000E+00 0.  1.
         11   -1    0    0    0    0 -0.00000000000E+00 -0.00000000000E+00 -0.12500000000E+03  0.12500000000E+03  0.00000000000E+00 0. -1.
         24    1    1    2    0    0  0.24302777797E+01  0.94805260037E+02  0.12800018161E+02  0.12500000000E+03  0.80419002446E+02 0.  0.
        -24    1    1    2    0    0 -0.24302777797E+01 -0.94805260037E+02 -0.12800018161E+02  0.12500000000E+03  0.80419002446E+02 0. -1.
</event>
<event>
 4    1  0.1653896E-001  0.1250000E+03  0.7546771E-02  0.1126479E+00
        -11   -1    0    0    0    0  0.00000000000E+00  0.00000000000E+00  0.12500000000E+03  0.12500000000E+03  0.00000000000E+00 0.  1.
         11   -1    0    0    0    0 -0.00000000000E+00 -0.00000000000E+00 -0.12500000000E+03  0.12500000000E+03  0.00000000000E+00 0. -1.
         24    1    1    2    0    0 -0.10215471218E+02 -0.55082158523E+02  0.77584689249E+02  0.12500000000E+03  0.80419002446E+02 0.  1.
        -24    1    1    2    0    0  0.10215471218E+02  0.55082158523E+02 -0.77584689249E+02  0.12500000000E+03  0.80419002446E+02 0. -1.
</event>
<event>
 4    1  0.1653896E-001  0.1250000E+03  0.7546771E-02  0.1126479E+00
        -11   -1    0    0    0    0  0.00000000000E+00  0.00000000000E+00  0.12500000000E+03  0.12500000000E+03  0.00000000000E+00 0.  1.
         11   -1    0    0    0    0 -0.00000000000E+00 -0.00000000000E+00 -0.12500000000E+03  0.12500000000E+03  0.00000000000E+00 0. -1.
         24    1    1    2    0    0  0.61113638670E+02 -0.10472918686E+02  0.72891873266E+02  0.12500000000E+03  0.80419002446E+02 0.  1.
        -24    1    1    2    0    0 -0.61113638670E+02  0.10472918686E+02 -0.72891873266E+02  0.12500000000E+03  0.80419002446E+02 0. -1.
</event>
<event>
 4    1  0.1653896E-001  0.1250000E+03  0.7546771E-02  0.1126479E+00
        -11   -1    0    0    0    0  0.00000000000E+00  0.00000000000E+00  0.12500000000E+03  0.12500000000E+03  0.00000000000E+00 0.  1.
         11   -1    0    0    0    0 -0.00000000000E+00 -0.00000000000E+00 -0.12500000000E+03  0.12500000000E+03  0.00000000000E+00 0. -1.
         24    1    1    2    0    0 -0.58251942118E+02  0.75017644186E+02 -0.11698219774E+02  0.12500000000E+03  0.80419002446E+02 0.  0.
        -24    1    1    2    0    0  0.58251942118E+02 -0.75017644186E+02  0.11698219774E+02  0.12500000000E+03  0.80419002446E+02 0. -1.
</event>
<event>
 4    1  0.1653896E-001  0.1250000E+03  0.7546771E-02  0.1126479E+00
        -11   -1    0    0    0    0  0.00000000000E+00  0.00000000000E+00  0.12500000000E+03  0.12500000000E+03  0.00000000000E+00 0.  1.
         11   -1    0    0    0    0 -0.00000000000E+00 -0.00000000000E+00 -0.12500000000E+03  0.12500000000E+03  0.00000000000E+00 0. -1.
         24    1    1    2    0    0  0.69046538467E+02  0.61963032959E+02  0.23472156225E+02  0.12500000000E+03  0.80419002446E+02 0.  1.
        -24    1    1    2    0    0 -0.69046538467E+02 -0.61963032959E+02 -0.23472156225E+02  0.12500000000E+03  0.80419002446E+02 0. -1.
</event>
<event>
 4    1  0.1653896E-001  0.1250000E+03  0.7546771E-02  0.1126479E+00
        -11   -1    0    0    0    0  0.00000000000E+00  0.00000000000E+00  0.12500000000E+03  0.12500000000E+03  0.00000000000E+00 0.  1.
         11   -1    0    0    0    0 -0.00000000000E+00 -0.00000000000E+00 -0.12500000000E+03  0.12500000000E+03  0.00000000000E+00 0. -1.
         24    1    1    2    0    0  0.20406671055E+01 -0.14816094656E+02  0.94520384376E+02  0.12500000000E+03  0.80419002446E+02 0.  1.
        -24    1    1    2    0    0 -0.20406671055E+01  0.14816094656E+02 -0.94520384376E+02  0.12500000000E+03  0.80419002446E+02 0. -1.
</event>
<event>
 4    1  0.1653896E-001  0.1250000E+03  0.7546771E-02  0.1126479E+00
        -11   -1    0    0    0    0  0.00000000000E+00  0.00000000000E+00  0.12500000000E+03  0.12500000000E+03  0.00000000000E+00 0.  1.
         11   -1    0    0    0    0 -0.00000000000E+00 -0.00000000000E+00 -0.12500000000E+03  0.12500000000E+03  0.00000000000E+00 0. -1.
         24    1    1    2    0    0  0.14183576557E+01 -0.39352854673E+01  0.95604842113E+02  0.12500000000E+03  0.80419002446E+02 0.  0.
        -24    1    1    2    0    0 -0.14183576557E+01  0.39352854673E+01 -0.95604842113E+02  0.12500000000E+03  0.80419002446E+02 0. -1.
</event>
<event>
 4    1  0.1653896E-001  0.1250000E+03  0.7546771E-02  0.1126479E+00
        -11   -1    0    0    0    0  0.00000000000E+00  0.00000000000E+00  0.12500000000E+03  0.12500000000E+03  0.00000000000E+00 0.  1.
         11   -1    0    0    0    0 -0.00000000000E+00 -0.00000000000E+00 -0.12500000000E+03  0.12500000000E+03  0.00000000000E+00 0. -1.
         24    1    1    2    0    0 -0.14037127285E+02 -0.91073108164E+02  0.25815345679E+02  0.12500000000E+03  0.80419002446E+02 0.  1.
        -24    1    1    2    0    0  0.14037127285E+02  0.91073108164E+02 -0.25815345679E+02  0.12500000000E+03  0.80419002446E+02 0. -1.
</event>
<event>
 4    1  0.1653896E-001  0.1250000E+03  0.7546771E-02  0.1126479E+00
        -11   -1    0    0    0    0  0.00000000000E+00  0.00000000000E+00  0.12500000000E+03  0.12500000000E+03  0.00000000000E+00 0.  1.
         11   -1    0    0    0    0 -0.00000000000E+00 -0.00000000000E+00 -0.12500000000E+03  0.12500000000E+03  0.00000000000E+00 0. -1.
         24    1    1    2    0    0  0.47586252231E+02 -0.49074626731E+02  0.66970244553E+02  0.12500000000E+03  0.80419002446E+02 0.  1.
        -24    1    1    2    0    0 -0.47586252231E+02  0.49074626731E+02 -0.66970244553E+02  0.12500000000E+03  0.80419002446E+02 0. -1.
</event>
<event>
 4    1  0.1653896E-001  0.1250000E+03  0.7546771E-02  0.1126479E+00
        -11   -1    0    0    0    0  0.00000000000E+00  0.00000000000E+00  0.12500000000E+03  0.12500000000E+03  0.00000000000E+00 0.  1.
         11   -1    0    0    0    0 -0.00000000000E+00 -0.00000000000E+00 -0.12500000000E+03  0.12500000000E+03  0.00000000000E+00 0. -1.
         24    1    1    2    0    0  0.41103018035E+01 -0.16923892754E+02  0.94098200401E+02  0.12500000000E+03  0.80419002446E+02 0.  1.
        -24    1    1    2    0    0 -0.41103018035E+01  0.16923892754E+02 -0.94098200401E+02  0.12500000000E+03  0.80419002446E+02 0.  0.
</event>
<event>
 4    1  0.1653896E-001  0.1250000E+03  0.7546771E-02  0.1126479E+00
        -11   -1    0    0    0    0  0.00000000000E+00  0.00000000000E+00  0.12500000000E+03  0.12500000000E+03  0.00000000000E+00 0.  1.
         11   -1    0    0    0    0 -0.00000000000E+00 -0.00000000000E+00 -0.12500000000E+03  0.12500000000E+03  0.00000000000E+00 0. -1.
         24    1    1    2    0    0  0.42151529617E+02  0.46373789805E+02  0.72322224909E+02  0.12500000000E+03  0.80419002446E+02 0.  1.
        -24    1    1    2    0    0 -0.42151529617E+02 -0.46373789805E+02 -0.72322224909E+02  0.12500000000E+03  0.80419002446E+02 0. -1.
</event>
<event>
 4    1  0.1653896E-001  0.1250000E+03  0.7546771E-02  0.1126479E+00
        -11   -1    0    0    0    0  0.00000000000E+00  0.00000000000E+00  0.12500000000E+03  0.12500000000E+03  0.00000000000E+00 0.  1.
         11   -1    0    0    0    0 -0.00000000000E+00 -0.00000000000E+00 -0.12500000000E+03  0.12500000000E+03  0.00000000000E+00 0. -1.
         24    1    1    2    0    0 -0.81020889133E+02  0.34174113277E+02  0.37756185605E+02  0.12500000000E+03  0.80419002446E+02 0.  1.
        -24    1    1    2    0    0  0.81020889133E+02 -0.34174113277E+02 -0.37756185605E+02  0.12500000000E+03  0.80419002446E+02 0. -1.
</event>
<event>
 4    1  0.1653896E-001  0.1250000E+03  0.7546771E-02  0.1126479E+00
        -11   -1    0    0    0    0  0.00000000000E+00  0.00000000000E+00  0.12500000000E+03  0.12500000000E+03  0.00000000000E+00 0.  1.
         11   -1    0    0    0    0 -0.00000000000E+00 -0.00000000000E+00 -0.12500000000E+03  0.12500000000E+03  0.00000000000E+00 0. -1.
         24    1    1    2    0    0  0.89960418402E+02 -0.13146664506E+02 -0.29867580734E+02  0.12500000000E+03  0.80419002446E+02 0.  0.
        -24    1    1    2    0    0 -0.89960418402E+02  0.13146664506E+02  0.29867580734E+02  0.12500000000E+03  0.80419002446E+02 0. -1.
</event>
<event>
 4    1  0.1653896E-001  0.1250000E+03  0.7546771E-02  0.1126479E+00
        -11   -1    0    0    0    0  0.00000000000E+00  0.00000000000E+00  0.12500000000E+03  0.12500000000E+03  0.00000000000E+00 0.  1.
         11   -1    0    0    0    0 -0.00000000000E+00 -0.00000000000E+00 -0.12500000000E+03  0.12500000000E+03  0.00000000000E+00 0. -1.
         24    1    1    2    0    0  0.12225582991E+02 -0.37758430740E+01  0.94837029557E+02  0.12500000000E+03  0.80419002446E+02 0.  1.
        -24    1    1    2    0    0 -0.12225582991E+02  0.37758430740E+01 -0.94837029557E+02  0.12500000000E+03  0.80419002446E+02 0.  0.
</event>
<event>
 4    1  0.1653896E-001  0.1250000E+03  0.7546771E-02  0.1126479E+00
        -11   -1    0    0    0    0  0.00000000000E+00  0.00000000000E+00  0.12500000000E+03  0.12500000000E+03  0.00000000000E+00 0.  1.
         11   -1    0    0    0    0 -0.00000000000E+00 -0.00000000000E+00 -0.12500000000E+03  0.12500000000E+03  0.00000000000E+00 0. -1.
         24    1    1    2    0    0 -0.51626590240E+02 -0.72450335431E+02  0.35262276185E+02  0.12500000000E+03  0.80419002446E+02 0.  1.
        -24    1    1    2    0    0  0.51626590240E+02  0.72450335431E+02 -0.35262276185E+02  0.12500000000E+03  0.80419002446E+02 0. -1.
</event>
<event>
 4    1  0.1653896E-001  0.1250000E+03  0.7546771E-02  0.1126479E+00
        -11   -1    0    0    0    0  0.00000000000E+00  0.00000000000E+00  0.12500000000E+03  0.12500000000E+03  0.00000000000E+00 0.  1.
         11   -1    0    0    0    0 -0.00000000000E+00 -0.00000000000E+00 -0.12500000000E+03  0.12500000000E+03  0.00000000000E+00 0. -1.
         24    1    1    2    0    0 -0.53175105941E+00 -0.60320179661E+02  0.74289819034E+02  0.12500000000E+03  0.80419002446E+02 0.  1.
        -24    1    1    2    0    0  0.53175105941E+00  0.60320179661E+02 -0.74289819034E+02  0.12500000000E+03  0.80419002446E+02 0. -1.
</event>
<event>
 4    1  0.1653896E-001  0.1250000E+03  0.7546771E-02  0.1126479E+00
        -11   -1    0    0    0    0  0.00000000000E+00  0.00000000000E+00  0.12500000000E+03  0.12500000000E+03  0.00000000000E+00 0.  1.
         11   -1    0    0    0    0 -0.00000000000E+00 -0.00000000000E+00 -0.12500000000E+03  0.12500000000E+03  0.00000000000E+00 0. -1.
         24    1    1    2    0    0 -0.10458651537E+02 -0.33736112806E+02  0.88939728729E+02  0.12500000000E+03  0.80419002446E+02 0.  1.
        -24    1    1    2    0    0  0.10458651537E+02  0.33736112806E+02 -0.88939728729E+02  0.12500000000E+03  0.80419002446E+02 0. -1.
</event>
<event>
 4    1  0.1653896E-001  0.1250000E+03  0.7546771E-02  0.1126479E+00
        -11   -1    0    0    0    0  0.00000000000E+00  0.00000000000E+00  0.12500000000E+03  0.12500000000E+03  0.00000000000E+00 0.  1.
         11   -1    0    0    0    0 -0.00000000000E+00 -0.00000000000E+00 -0.12500000000E+03  0.12500000000E+03  0.00000000000E+00 0. -1.
         24    1    1    2    0    0 -0.29037324662E+01  0.10140313483E+02  0.95113229500E+02  0.12500000000E+03  0.80419002446E+02 0.  1.
        -24    1    1    2    0    0  0.29037324662E+01 -0.10140313483E+02 -0.95113229500E+02  0.12500000000E+03  0.80419002446E+02 0. -1.
</event>
<event>
 4    1  0.1653896E-001  0.1250000E+03  0.7546771E-02  0.1126479E+00
        -11   -1    0    0    0    0  0.00000000000E+00  0.00000000000E+00  0.12500000000E+03  0.12500000000E+03  0.00000000000E+00 0.  1.
         11   -1    0    0    0    0 -0.00000000000E+00 -0.00000000000E+00 -0.12500000000E+03  0.12500000000E+03  0.00000000000E+00 0. -1.
         24    1    1    2    0    0 -0.19000088959E+01 -0.70387081447E+02  0.64806116820E+02  0.12500000000E+03  0.80419002446E+02 0.  1.
        -24    1    1    2    0    0  0.19000088959E+01  0.70387081447E+02 -0.64806116820E+02  0.12500000000E+03  0.80419002446E+02 0. -1.
</event>
<event>
 4    1  0.1653896E-001  0.1250000E+03  0.7546771E-02  0.1126479E+00
        -11   -1    0    0    0    0  0.00000000000E+00  0.00000000000E+00  0.12500000000E+03  0.12500000000E+03  0.00000000000E+00 0.  1.
         11   -1    0    0    0    0 -0.00000000000E+00 -0.00000000000E+00 -0.12500000000E+03  0.12500000000E+03  0.00000000000E+00 0. -1.
         24    1    1    2    0    0 -0.34610971155E+02 -0.99643785175E+01  0.88659888801E+02  0.12500000000E+03  0.80419002446E+02 0.  1.
        -24    1    1    2    0    0  0.34610971155E+02  0.99643785175E+01 -0.88659888801E+02  0.12500000000E+03  0.80419002446E+02 0. -1.
</event>
<event>
 4    1  0.1653896E-001  0.1250000E+03  0.7546771E-02  0.1126479E+00
        -11   -1    0    0    0    0  0.00000000000E+00  0.00000000000E+00  0.12500000000E+03  0.12500000000E+03  0.00000000000E+00 0.  1.
         11   -1    0    0    0    0 -0.00000000000E+00 -0.00000000000E+00 -0.12500000000E+03  0.12500000000E+03  0.00000000000E+00 0. -1.
         24    1    1    2    0    0 -0.12282801872E+02 -0.55928992600E+02  0.76673754379E+02  0.12500000000E+03  0.80419002446E+02 0.  1.
        -24    1    1    2    0    0  0.12282801872E+02  0.55928992600E+02 -0.76673754379E+02  0.12500000000E+03  0.80419002446E+02 0. -1.
</event>
<event>
 4    1  0.1653896E-001  0.1250000E+03  0.7546771E-02  0.1126479E+00
        -11   -1    0    0    0    0  0.00000000000E+00  0.00000000000E+00  0.12500000000E+03  0.12500000000E+03  0.00000000000E+00 0.  1.
         11   -1    0    0    0    0 -0.00000000000E+00 -0.00000000000E+00 -0.12500000000E+03  0.12500000000E+03  0.00000000000E+00 0. -1.
         24    1    1    2    0    0  0.46301103680E+02  0.59598572434E+02  0.58838779793E+02  0.12500000000E+03  0.80419002446E+02 0.  1.
        -24    1    1    2    0    0 -0.46301103680E+02 -0.59598572434E+02 -0.58838779793E+02  0.12500000000E+03  0.80419002446E+02 0. -1.
</event>
<event>
 4    1  0.1653896E-001  0.1250000E+03  0.7546771E-02  0.1126479E+00
        -11   -1    0    0    0    0  0.00000000000E+00  0.00000000000E+00  0.12500000000E+03  0.12500000000E+03  0.00000000000E+00 0.  1.
         11   -1    0    0    0    0 -0.00000000000E+00 -0.00000000000E+00 -0.12500000000E+03  0.12500000000E+03  0.00000000000E+00 0. -1.
         24    1    1    2    0    0 -0.14673548201E+02 -0.10314471394E+02  0.94000439939E+02  0.12500000000E+03  0.80419002446E+02 0.  1.
        -24    1    1    2    0    0  0.14673548201E+02  0.10314471394E+02 -0.94000439939E+02  0.12500000000E+03  0.80419002446E+02 0. -1.
</event>
<event>
 4    1  0.1653896E-001  0.1250000E+03  0.7546771E-02  0.1126479E+00
        -11   -1    0    0    0    0  0.00000000000E+00  0.00000000000E+00  0.12500000000E+03  0.12500000000E+03  0.00000000000E+00 0.  1.
         11   -1    0    0    0    0 -0.00000000000E+00 -0.00000000000E+00 -0.12500000000E+03  0.12500000000E+03  0.00000000000E+00 0. -1.
         24    1    1    2    0    0 -0.74331218606E+02  0.19105659026E+02  0.57163168032E+02  0.12500000000E+03  0.80419002446E+02 0.  1.
        -24    1    1    2    0    0  0.74331218606E+02 -0.19105659026E+02 -0.57163168032E+02  0.12500000000E+03  0.80419002446E+02 0. -1.
</event>
<event>
 4    1  0.1653896E-001  0.1250000E+03  0.7546771E-02  0.1126479E+00
        -11   -1    0    0    0    0  0.00000000000E+00  0.00000000000E+00  0.12500000000E+03  0.12500000000E+03  0.00000000000E+00 0.  1.
         11   -1    0    0    0    0 -0.00000000000E+00 -0.00000000000E+00 -0.12500000000E+03  0.12500000000E+03  0.00000000000E+00 0. -1.
         24    1    1    2    0    0 -0.43988291126E+02 -0.12418575490E+01  0.84978068225E+02  0.12500000000E+03  0.80419002446E+02 0.  1.
        -24    1    1    2    0    0  0.43988291126E+02  0.12418575490E+01 -0.84978068225E+02  0.12500000000E+03  0.80419002446E+02 0. -1.
</event>
<event>
 4    1  0.1653896E-001  0.1250000E+03  0.7546771E-02  0.1126479E+00
        -11   -1    0    0    0    0  0.00000000000E+00  0.00000000000E+00  0.12500000000E+03  0.12500000000E+03  0.00000000000E+00 0.  1.
         11   -1    0    0    0    0 -0.00000000000E+00 -0.00000000000E+00 -0.12500000000E+03  0.12500000000E+03  0.00000000000E+00 0. -1.
         24    1    1    2    0    0  0.18038376788E+02  0.40122424158E+02  0.84985834633E+02  0.12500000000E+03  0.80419002446E+02 0.  1.
        -24    1    1    2    0    0 -0.18038376788E+02 -0.40122424158E+02 -0.84985834633E+02  0.12500000000E+03  0.80419002446E+02 0. -1.
</event>
<event>
 4    1  0.1653896E-001  0.1250000E+03  0.7546771E-02  0.1126479E+00
        -11   -1    0    0    0    0  0.00000000000E+00  0.00000000000E+00  0.12500000000E+03  0.12500000000E+03  0.00000000000E+00 0.  1.
         11   -1    0    0    0    0 -0.00000000000E+00 -0.00000000000E+00 -0.12500000000E+03  0.12500000000E+03  0.00000000000E+00 0. -1.
         24    1    1    2    0    0 -0.34723284714E+02  0.47944353212E+01  0.89045443085E+02  0.12500000000E+03  0.80419002446E+02 0.  1.
        -24    1    1    2    0    0  0.34723284714E+02 -0.47944353212E+01 -0.89045443085E+02  0.12500000000E+03  0.80419002446E+02 0. -1.
</event>
<event>
 4    1  0.1653896E-001  0.1250000E+03  0.7546771E-02  0.1126479E+00
        -11   -1    0    0    0    0  0.00000000000E+00  0.00000000000E+00  0.12500000000E+03  0.12500000000E+03  0.00000000000E+00 0.  1.
         11   -1    0    0    0    0 -0.00000000000E+00 -0.00000000000E+00 -0.12500000000E+03  0.12500000000E+03  0.00000000000E+00 0. -1.
         24    1    1    2    0    0  0.72235216763E+02 -0.28195485710E+02  0.56079159144E+02  0.12500000000E+03  0.80419002446E+02 0.  1.
        -24    1    1    2    0    0 -0.72235216763E+02  0.28195485710E+02 -0.56079159144E+02  0.12500000000E+03  0.80419002446E+02 0. -1.
</event>
<event>
 4    1  0.1653896E-001  0.1250000E+03  0.7546771E-02  0.1126479E+00
        -11   -1    0    0    0    0  0.00000000000E+00  0.00000000000E+00  0.12500000000E+03  0.12500000000E+03  0.00000000000E+00 0.  1.
         11   -1    0    0    0    0 -0.00000000000E+00 -0.00000000000E+00 -0.12500000000E+03  0.12500000000E+03  0.00000000000E+00 0. -1.
         24    1    1    2    0    0 -0.15058275103E+02 -0.39525164923E+02  0.85841678306E+02  0.12500000000E+03  0.80419002446E+02 0.  1.
        -24    1    1    2    0    0  0.15058275103E+02  0.39525164923E+02 -0.85841678306E+02  0.12500000000E+03  0.80419002446E+02 0. -1.
</event>
<event>
 4    1  0.1653896E-001  0.1250000E+03  0.7546771E-02  0.1126479E+00
        -11   -1    0    0    0    0  0.00000000000E+00  0.00000000000E+00  0.12500000000E+03  0.12500000000E+03  0.00000000000E+00 0.  1.
         11   -1    0    0    0    0 -0.00000000000E+00 -0.00000000000E+00 -0.12500000000E+03  0.12500000000E+03  0.00000000000E+00 0. -1.
         24    1    1    2    0    0 -0.40190301097E+02  0.83694739698E+02  0.23188667282E+02  0.12500000000E+03  0.80419002446E+02 0.  1.
        -24    1    1    2    0    0  0.40190301097E+02 -0.83694739698E+02 -0.23188667282E+02  0.12500000000E+03  0.80419002446E+02 0. -1.
</event>
<event>
 4    1  0.1653896E-001  0.1250000E+03  0.7546771E-02  0.1126479E+00
        -11   -1    0    0    0    0  0.00000000000E+00  0.00000000000E+00  0.12500000000E+03  0.12500000000E+03  0.00000000000E+00 0.  1.
         11   -1    0    0    0    0 -0.00000000000E+00 -0.00000000000E+00 -0.12500000000E+03  0.12500000000E+03  0.00000000000E+00 0. -1.
         24    1    1    2    0    0  0.83298954805E+02  0.33987147839E+02  0.32618123119E+02  0.12500000000E+03  0.80419002446E+02 0. -1.
        -24    1    1    2    0    0 -0.83298954805E+02 -0.33987147839E+02 -0.32618123119E+02  0.12500000000E+03  0.80419002446E+02 0.  1.
</event>
<event>
 4    1  0.1653896E-001  0.1250000E+03  0.7546771E-02  0.1126479E+00
        -11   -1    0    0    0    0  0.00000000000E+00  0.00000000000E+00  0.12500000000E+03  0.12500000000E+03  0.00000000000E+00 0.  1.
         11   -1    0    0    0    0 -0.00000000000E+00 -0.00000000000E+00 -0.12500000000E+03  0.12500000000E+03  0.00000000000E+00 0. -1.
         24    1    1    2    0    0 -0.95277289311E+01  0.76938894753E+01  0.94909485784E+02  0.12500000000E+03  0.80419002446E+02 0.  1.
        -24    1    1    2    0    0  0.95277289311E+01 -0.76938894753E+01 -0.94909485784E+02  0.12500000000E+03  0.80419002446E+02 0. -1.
</event>
<event>
 4    1  0.1653896E-001  0.1250000E+03  0.7546771E-02  0.1126479E+00
        -11   -1    0    0    0    0  0.00000000000E+00  0.00000000000E+00  0.12500000000E+03  0.12500000000E+03  0.00000000000E+00 0.  1.
         11   -1    0    0    0    0 -0.00000000000E+00 -0.00000000000E+00 -0.12500000000E+03  0.12500000000E+03  0.00000000000E+00 0. -1.
         24    1    1    2    0    0  0.21010503237E+02 -0.15131910463E+02  0.92126912925E+02  0.12500000000E+03  0.80419002446E+02 0.  1.
        -24    1    1    2    0    0 -0.21010503237E+02  0.15131910463E+02 -0.92126912925E+02  0.12500000000E+03  0.80419002446E+02 0. -1.
</event>
<event>
 4    1  0.1653896E-001  0.1250000E+03  0.7546771E-02  0.1126479E+00
        -11   -1    0    0    0    0  0.00000000000E+00  0.00000000000E+00  0.12500000000E+03  0.12500000000E+03  0.00000000000E+00 0.  1.
         11   -1    0    0    0    0 -0.00000000000E+00 -0.00000000000E+00 -0.12500000000E+03  0.12500000000E+03  0.00000000000E+00 0. -1.
         24    1    1    2    0    0  0.20400074203E+01 -0.57002847153E+02  0.76839428888E+02  0.12500000000E+03  0.80419002446E+02 0. -1.
        -24    1    1    2    0    0 -0.20400074203E+01  0.57002847153E+02 -0.76839428888E+02  0.12500000000E+03  0.80419002446E+02 0. -1.
</event>
<event>
 4    1  0.1653896E-001  0.1250000E+03  0.7546771E-02  0.1126479E+00
        -11   -1    0    0    0    0  0.00000000000E+00  0.00000000000E+00  0.12500000000E+03  0.12500000000E+03  0.00000000000E+00 0.  1.
         11   -1    0    0    0    0 -0.00000000000E+00 -0.00000000000E+00 -0.12500000000E+03  0.12500000000E+03  0.00000000000E+00 0. -1.
         24    1    1    2    0    0  0.14182096316E+02  0.41543857313E+02  0.85033876245E+02  0.12500000000E+03  0.80419002446E+02 0.  1.
        -24    1    1    2    0    0 -0.14182096316E+02 -0.41543857313E+02 -0.85033876245E+02  0.12500000000E+03  0.80419002446E+02 0. -1.
</event>
<event>
 4    1  0.1653896E-001  0.1250000E+03  0.7546771E-02  0.1126479E+00
        -11   -1    0    0    0    0  0.00000000000E+00  0.00000000000E+00  0.12500000000E+03  0.12500000000E+03  0.00000000000E+00 0.  1.
         11   -1    0    0    0    0 -0.00000000000E+00 -0.00000000000E+00 -0.12500000000E+03  0.12500000000E+03  0.00000000000E+00 0. -1.
         24    1    1    2    0    0 -0.87932397908E+02  0.76498769735E+01  0.36975083854E+02  0.12500000000E+03  0.80419002446E+02 0.  1.
        -24    1    1    2    0    0  0.87932397908E+02 -0.76498769735E+01 -0.36975083854E+02  0.12500000000E+03  0.80419002446E+02 0. -1.
</event>
<event>
 4    1  0.1653896E-001  0.1250000E+03  0.7546771E-02  0.1126479E+00
        -11   -1    0    0    0    0  0.00000000000E+00  0.00000000000E+00  0.12500000000E+03  0.12500000000E+03  0.00000000000E+00 0.  1.
         11   -1    0    0    0    0 -0.00000000000E+00 -0.00000000000E+00 -0.12500000000E+03  0.12500000000E+03  0.00000000000E+00 0. -1.
         24    1    1    2    0    0 -0.63790289286E+01  0.18903591260E+02  0.93593516191E+02  0.12500000000E+03  0.80419002446E+02 0.  1.
        -24    1    1    2    0    0  0.63790289286E+01 -0.18903591260E+02 -0.93593516191E+02  0.12500000000E+03  0.80419002446E+02 0. -1.
</event>
<event>
 4    1  0.1653896E-001  0.1250000E+03  0.7546771E-02  0.1126479E+00
        -11   -1    0    0    0    0  0.00000000000E+00  0.00000000000E+00  0.12500000000E+03  0.12500000000E+03  0.00000000000E+00 0.  1.
         11   -1    0    0    0    0 -0.00000000000E+00 -0.00000000000E+00 -0.12500000000E+03  0.12500000000E+03  0.00000000000E+00 0. -1.
         24    1    1    2    0    0  0.49606586098E+02  0.77812266116E+02  0.25342097449E+02  0.12500000000E+03  0.80419002446E+02 0.  0.
        -24    1    1    2    0    0 -0.49606586098E+02 -0.77812266116E+02 -0.25342097449E+02  0.12500000000E+03  0.80419002446E+02 0. -1.
</event>
<event>
 4    1  0.1653896E-001  0.1250000E+03  0.7546771E-02  0.1126479E+00
        -11   -1    0    0    0    0  0.00000000000E+00  0.00000000000E+00  0.12500000000E+03  0.12500000000E+03  0.00000000000E+00 0.  1.
         11   -1    0    0    0    0 -0.00000000000E+00 -0.00000000000E+00 -0.12500000000E+03  0.12500000000E+03  0.00000000000E+00 0. -1.
         24    1    1    2    0    0  0.45251888253E+01 -0.56308017228E+02  0.77244507297E+02  0.12500000000E+03  0.80419002446E+02 0.  1.
        -24    1    1    2    0    0 -0.45251888253E+01  0.56308017228E+02 -0.77244507297E+02  0.12500000000E+03  0.80419002446E+02 0. -1.
</event>
<event>
 4    1  0.1653896E-001  0.1250000E+03  0.7546771E-02  0.1126479E+00
        -11   -1    0    0    0    0  0.00000000000E+00  0.00000000000E+00  0.12500000000E+03  0.12500000000E+03  0.00000000000E+00 0.  1.
         11   -1    0    0    0    0 -0.00000000000E+00 -0.00000000000E+00 -0.12500000000E+03  0.12500000000E+03  0.00000000000E+00 0. -1.
         24    1    1    2    0    0  0.65233997725E+02 -0.42042173767E+02  0.55988974016E+02  0.12500000000E+03  0.80419002446E+02 0.  1.
        -24    1    1    2    0    0 -0.65233997725E+02  0.42042173767E+02 -0.55988974016E+02  0.12500000000E+03  0.80419002446E+02 0. -1.
</event>
<event>
 4    1  0.1653896E-001  0.1250000E+03  0.7546771E-02  0.1126479E+00
        -11   -1    0    0    0    0  0.00000000000E+00  0.00000000000E+00  0.12500000000E+03  0.12500000000E+03  0.00000000000E+00 0.  1.
         11   -1    0    0    0    0 -0.00000000000E+00 -0.00000000000E+00 -0.12500000000E+03  0.12500000000E+03  0.00000000000E+00 0. -1.
         24    1    1    2    0    0 -0.82807359518E+01  0.65902341430E+01  0.95109317481E+02  0.12500000000E+03  0.80419002446E+02 0.  1.
        -24    1    1    2    0    0  0.82807359518E+01 -0.65902341430E+01 -0.95109317481E+02  0.12500000000E+03  0.80419002446E+02 0.  0.
</event>
<event>
 4    1  0.1653896E-001  0.1250000E+03  0.7546771E-02  0.1126479E+00
        -11   -1    0    0    0    0  0.00000000000E+00  0.00000000000E+00  0.12500000000E+03  0.12500000000E+03  0.00000000000E+00 0.  1.
         11   -1    0    0    0    0 -0.00000000000E+00 -0.00000000000E+00 -0.12500000000E+03  0.12500000000E+03  0.00000000000E+00 0. -1.
         24    1    1    2    0    0  0.40140513938E+02  0.28032315577E+01  0.86825486346E+02  0.12500000000E+03  0.80419002446E+02 0.  0.
        -24    1    1    2    0    0 -0.40140513938E+02 -0.28032315577E+01 -0.86825486346E+02  0.12500000000E+03  0.80419002446E+02 0.  0.
</event>
<event>
 4    1  0.1653896E-001  0.1250000E+03  0.7546771E-02  0.1126479E+00
        -11   -1    0    0    0    0  0.00000000000E+00  0.00000000000E+00  0.12500000000E+03  0.12500000000E+03  0.00000000000E+00 0.  1.
         11   -1    0    0    0    0 -0.00000000000E+00 -0.00000000000E+00 -0.12500000000E+03  0.12500000000E+03  0.00000000000E+00 0. -1.
         24    1    1    2    0    0  0.74315962897E+02  0.18066208307E+02  0.57519855891E+02  0.12500000000E+03  0.80419002446E+02 0.  1.
        -24    1    1    2    0    0 -0.74315962897E+02 -0.18066208307E+02 -0.57519855891E+02  0.12500000000E+03  0.80419002446E+02 0. -1.
</event>
<event>
 4    1  0.1653896E-001  0.1250000E+03  0.7546771E-02  0.1126479E+00
        -11   -1    0    0    0    0  0.00000000000E+00  0.00000000000E+00  0.12500000000E+03  0.12500000000E+03  0.00000000000E+00 0.  1.
         11   -1    0    0    0    0 -0.00000000000E+00 -0.00000000000E+00 -0.12500000000E+03  0.12500000000E+03  0.00000000000E+00 0. -1.
         24    1    1    2    0    0 -0.62616628788E+02 -0.40628080829E+02  0.59885731965E+02  0.12500000000E+03  0.80419002446E+02 0.  1.
        -24    1    1    2    0    0  0.62616628788E+02  0.40628080829E+02 -0.59885731965E+02  0.12500000000E+03  0.80419002446E+02 0. -1.
</event>
<event>
 4    1  0.1653896E-001  0.1250000E+03  0.7546771E-02  0.1126479E+00
        -11   -1    0    0    0    0  0.00000000000E+00  0.00000000000E+00  0.12500000000E+03  0.12500000000E+03  0.00000000000E+00 0.  1.
         11   -1    0    0    0    0 -0.00000000000E+00 -0.00000000000E+00 -0.12500000000E+03  0.12500000000E+03  0.00000000000E+00 0. -1.
         24    1    1    2    0    0 -0.49892797722E+02 -0.39736214584E+01  0.81564104321E+02  0.12500000000E+03  0.80419002446E+02 0.  1.
        -24    1    1    2    0    0  0.49892797722E+02  0.39736214584E+01 -0.81564104321E+02  0.12500000000E+03  0.80419002446E+02 0. -1.
</event>
<event>
 4    1  0.1653896E-001  0.1250000E+03  0.7546771E-02  0.1126479E+00
        -11   -1    0    0    0    0  0.00000000000E+00  0.00000000000E+00  0.12500000000E+03  0.12500000000E+03  0.00000000000E+00 0.  1.
         11   -1    0    0    0    0 -0.00000000000E+00 -0.00000000000E+00 -0.12500000000E+03  0.12500000000E+03  0.00000000000E+00 0. -1.
         24    1    1    2    0    0  0.88070305581E+02  0.46707945810E+01  0.37142818935E+02  0.12500000000E+03  0.80419002446E+02 0.  1.
        -24    1    1    2    0    0 -0.88070305581E+02 -0.46707945810E+01 -0.37142818935E+02  0.12500000000E+03  0.80419002446E+02 0. -1.
</event>
<event>
 4    1  0.1653896E-001  0.1250000E+03  0.7546771E-02  0.1126479E+00
        -11   -1    0    0    0    0  0.00000000000E+00  0.00000000000E+00  0.12500000000E+03  0.12500000000E+03  0.00000000000E+00 0.  1.
         11   -1    0    0    0    0 -0.00000000000E+00 -0.00000000000E+00 -0.12500000000E+03  0.12500000000E+03  0.00000000000E+00 0. -1.
         24    1    1    2    0    0  0.17820196566E+02 -0.77470790232E+02  0.53277587228E+02  0.12500000000E+03  0.80419002446E+02 0.  1.
        -24    1    1    2    0    0 -0.17820196566E+02  0.77470790232E+02 -0.53277587228E+02  0.12500000000E+03  0.80419002446E+02 0. -1.
</event>
<event>
 4    1  0.1653896E-001  0.1250000E+03  0.7546771E-02  0.1126479E+00
        -11   -1    0    0    0    0  0.00000000000E+00  0.00000000000E+00  0.12500000000E+03  0.12500000000E+03  0.00000000000E+00 0.  1.
         11   -1    0    0    0    0 -0.00000000000E+00 -0.00000000000E+00 -0.12500000000E+03  0.12500000000E+03  0.00000000000E+00 0. -1.
         24    1    1    2    0    0 -0.90152562081E+02 -0.20346145173E+02  0.24826074448E+02  0.12500000000E+03  0.80419002446E+02 0.  1.
        -24    1    1    2    0    0  0.90152562081E+02  0.20346145173E+02 -0.24826074448E+02  0.12500000000E+03  0.80419002446E+02 0. -1.
</event>
<event>
 4    1  0.1653896E-001  0.1250000E+03  0.7546771E-02  0.1126479E+00
        -11   -1    0    0    0    0  0.00000000000E+00  0.00000000000E+00  0.12500000000E+03  0.12500000000E+03  0.00000000000E+00 0.  1.
         11   -1    0    0    0    0 -0.00000000000E+00 -0.00000000000E+00 -0.12500000000E+03  0.12500000000E+03  0.00000000000E+00 0. -1.
         24    1    1    2    0    0 -0.14566258809E+02  0.20263027623E+02  0.92385160397E+02  0.12500000000E+03  0.80419002446E+02 0.  1.
        -24    1    1    2    0    0  0.14566258809E+02 -0.20263027623E+02 -0.92385160397E+02  0.12500000000E+03  0.80419002446E+02 0. -1.
</event>
<event>
 4    1  0.1653896E-001  0.1250000E+03  0.7546771E-02  0.1126479E+00
        -11   -1    0    0    0    0  0.00000000000E+00  0.00000000000E+00  0.12500000000E+03  0.12500000000E+03  0.00000000000E+00 0.  1.
         11   -1    0    0    0    0 -0.00000000000E+00 -0.00000000000E+00 -0.12500000000E+03  0.12500000000E+03  0.00000000000E+00 0. -1.
         24    1    1    2    0    0  0.29256048135E+01 -0.14090086141E+02  0.94608109349E+02  0.12500000000E+03  0.80419002446E+02 0.  1.
        -24    1    1    2    0    0 -0.29256048135E+01  0.14090086141E+02 -0.94608109349E+02  0.12500000000E+03  0.80419002446E+02 0. -1.
</event>
<event>
 4    1  0.1653896E-001  0.1250000E+03  0.7546771E-02  0.1126479E+00
        -11   -1    0    0    0    0  0.00000000000E+00  0.00000000000E+00  0.12500000000E+03  0.12500000000E+03  0.00000000000E+00 0.  1.
         11   -1    0    0    0    0 -0.00000000000E+00 -0.00000000000E+00 -0.12500000000E+03  0.12500000000E+03  0.00000000000E+00 0. -1.
         24    1    1    2    0    0 -0.91812150797E+02  0.78245145074E+01  0.25828085186E+02  0.12500000000E+03  0.80419002446E+02 0.  1.
        -24    1    1    2    0    0  0.91812150797E+02 -0.78245145074E+01 -0.25828085186E+02  0.12500000000E+03  0.80419002446E+02 0.  0.
</event>
<event>
 4    1  0.1653896E-001  0.1250000E+03  0.7546771E-02  0.1126479E+00
        -11   -1    0    0    0    0  0.00000000000E+00  0.00000000000E+00  0.12500000000E+03  0.12500000000E+03  0.00000000000E+00 0.  1.
         11   -1    0    0    0    0 -0.00000000000E+00 -0.00000000000E+00 -0.12500000000E+03  0.12500000000E+03  0.00000000000E+00 0. -1.
         24    1    1    2    0    0 -0.39265324297E+02 -0.14190951263E+02  0.86108276349E+02  0.12500000000E+03  0.80419002446E+02 0.  1.
        -24    1    1    2    0    0  0.39265324297E+02  0.14190951263E+02 -0.86108276349E+02  0.12500000000E+03  0.80419002446E+02 0. -1.
</event>
<event>
 4    1  0.1653896E-001  0.1250000E+03  0.7546771E-02  0.1126479E+00
        -11   -1    0    0    0    0  0.00000000000E+00  0.00000000000E+00  0.12500000000E+03  0.12500000000E+03  0.00000000000E+00 0.  1.
         11   -1    0    0    0    0 -0.00000000000E+00 -0.00000000000E+00 -0.12500000000E+03  0.12500000000E+03  0.00000000000E+00 0. -1.
         24    1    1    2    0    0  0.30756711172E+02  0.48459624184E+01  0.90489366291E+02  0.12500000000E+03  0.80419002446E+02 0.  1.
        -24    1    1    2    0    0 -0.30756711172E+02 -0.48459624184E+01 -0.90489366291E+02  0.12500000000E+03  0.80419002446E+02 0. -1.
</event>
<event>
 4    1  0.1653896E-001  0.1250000E+03  0.7546771E-02  0.1126479E+00
        -11   -1    0    0    0    0  0.00000000000E+00  0.00000000000E+00  0.12500000000E+03  0.12500000000E+03  0.00000000000E+00 0.  1.
         11   -1    0    0    0    0 -0.00000000000E+00 -0.00000000000E+00 -0.12500000000E+03  0.12500000000E+03  0.00000000000E+00 0. -1.
         24    1    1    2    0    0 -0.83037443728E+01 -0.23151113447E+02  0.92481662081E+02  0.12500000000E+03  0.80419002446E+02 0.  1.
        -24    1    1    2    0    0  0.83037443728E+01  0.23151113447E+02 -0.92481662081E+02  0.12500000000E+03  0.80419002446E+02 0. -1.
</event>
<event>
 4    1  0.1653896E-001  0.1250000E+03  0.7546771E-02  0.1126479E+00
        -11   -1    0    0    0    0  0.00000000000E+00  0.00000000000E+00  0.12500000000E+03  0.12500000000E+03  0.00000000000E+00 0.  1.
         11   -1    0    0    0    0 -0.00000000000E+00 -0.00000000000E+00 -0.12500000000E+03  0.12500000000E+03  0.00000000000E+00 0. -1.
         24    1    1    2    0    0  0.31908613022E+02 -0.63206174383E+02  0.64378598777E+02  0.12500000000E+03  0.80419002446E+02 0. -1.
        -24    1    1    2    0    0 -0.31908613022E+02  0.63206174383E+02 -0.64378598777E+02  0.12500000000E+03  0.80419002446E+02 0.  1.
</event>
<event>
 4    1  0.1653896E-001  0.1250000E+03  0.7546771E-02  0.1126479E+00
        -11   -1    0    0    0    0  0.00000000000E+00  0.00000000000E+00  0.12500000000E+03  0.12500000000E+03  0.00000000000E+00 0.  1.
         11   -1    0    0    0    0 -0.00000000000E+00 -0.00000000000E+00 -0.12500000000E+03  0.12500000000E+03  0.00000000000E+00 0. -1.
         24    1    1    2    0    0 -0.12174964791E+02  0.17369673834E+02  0.93315854542E+02  0.12500000000E+03  0.80419002446E+02 0.  1.
        -24    1    1    2    0    0  0.12174964791E+02 -0.17369673834E+02 -0.93315854542E+02  0.12500000000E+03  0.80419002446E+02 0. -1.
</event>
<event>
 4    1  0.1653896E-001  0.1250000E+03  0.7546771E-02  0.1126479E+00
        -11   -1    0    0    0    0  0.00000000000E+00  0.00000000000E+00  0.12500000000E+03  0.12500000000E+03  0.00000000000E+00 0.  1.
         11   -1    0    0    0    0 -0.00000000000E+00 -0.00000000000E+00 -0.12500000000E+03  0.12500000000E+03  0.00000000000E+00 0. -1.
         24    1    1    2    0    0 -0.81772563900E+02 -0.35955996507E+02  0.34324891173E+02  0.12500000000E+03  0.80419002446E+02 0.  1.
        -24    1    1    2    0    0  0.81772563900E+02  0.35955996507E+02 -0.34324891173E+02  0.12500000000E+03  0.80419002446E+02 0. -1.
</event>
<event>
 4    1  0.1653896E-001  0.1250000E+03  0.7546771E-02  0.1126479E+00
        -11   -1    0    0    0    0  0.00000000000E+00  0.00000000000E+00  0.12500000000E+03  0.12500000000E+03  0.00000000000E+00 0. -1.
         11   -1    0    0    0    0 -0.00000000000E+00 -0.00000000000E+00 -0.12500000000E+03  0.12500000000E+03  0.00000000000E+00 0.  1.
         24    1    1    2    0    0 -0.81142461367E+01  0.93060722169E+02 -0.20776069037E+02  0.12500000000E+03  0.80419002446E+02 0.  0.
        -24    1    1    2    0    0  0.81142461367E+01 -0.93060722169E+02  0.20776069037E+02  0.12500000000E+03  0.80419002446E+02 0.  0.
</event>
<event>
 4    1  0.1653896E-001  0.1250000E+03  0.7546771E-02  0.1126479E+00
        -11   -1    0    0    0    0  0.00000000000E+00  0.00000000000E+00  0.12500000000E+03  0.12500000000E+03  0.00000000000E+00 0.  1.
         11   -1    0    0    0    0 -0.00000000000E+00 -0.00000000000E+00 -0.12500000000E+03  0.12500000000E+03  0.00000000000E+00 0. -1.
         24    1    1    2    0    0  0.18527448096E+02 -0.39035587552E+02  0.85385833820E+02  0.12500000000E+03  0.80419002446E+02 0.  1.
        -24    1    1    2    0    0 -0.18527448096E+02  0.39035587552E+02 -0.85385833820E+02  0.12500000000E+03  0.80419002446E+02 0. -1.
</event>
<event>
 4    1  0.1653896E-001  0.1250000E+03  0.7546771E-02  0.1126479E+00
        -11   -1    0    0    0    0  0.00000000000E+00  0.00000000000E+00  0.12500000000E+03  0.12500000000E+03  0.00000000000E+00 0.  1.
         11   -1    0    0    0    0 -0.00000000000E+00 -0.00000000000E+00 -0.12500000000E+03  0.12500000000E+03  0.00000000000E+00 0. -1.
         24    1    1    2    0    0  0.66461274882E+02 -0.12738569439E+02  0.67663962605E+02  0.12500000000E+03  0.80419002446E+02 0.  1.
        -24    1    1    2    0    0 -0.66461274882E+02  0.12738569439E+02 -0.67663962605E+02  0.12500000000E+03  0.80419002446E+02 0. -1.
</event>
<event>
 4    1  0.1653896E-001  0.1250000E+03  0.7546771E-02  0.1126479E+00
        -11   -1    0    0    0    0  0.00000000000E+00  0.00000000000E+00  0.12500000000E+03  0.12500000000E+03  0.00000000000E+00 0.  1.
         11   -1    0    0    0    0 -0.00000000000E+00 -0.00000000000E+00 -0.12500000000E+03  0.12500000000E+03  0.00000000000E+00 0. -1.
         24    1    1    2    0    0 -0.13706879837E+02  0.28523581594E+02  0.90312295862E+02  0.12500000000E+03  0.80419002446E+02 0.  1.
        -24    1    1    2    0    0  0.13706879837E+02 -0.28523581594E+02 -0.90312295862E+02  0.12500000000E+03  0.80419002446E+02 0. -1.
</event>
<event>
 4    1  0.1653896E-001  0.1250000E+03  0.7546771E-02  0.1126479E+00
        -11   -1    0    0    0    0  0.00000000000E+00  0.00000000000E+00  0.12500000000E+03  0.12500000000E+03  0.00000000000E+00 0.  1.
         11   -1    0    0    0    0 -0.00000000000E+00 -0.00000000000E+00 -0.12500000000E+03  0.12500000000E+03  0.00000000000E+00 0. -1.
         24    1    1    2    0    0 -0.11963705228E+01 -0.60040576474E+02  0.74508267460E+02  0.12500000000E+03  0.80419002446E+02 0.  1.
        -24    1    1    2    0    0  0.11963705228E+01  0.60040576474E+02 -0.74508267460E+02  0.12500000000E+03  0.80419002446E+02 0. -1.
</event>
<event>
 4    1  0.1653896E-001  0.1250000E+03  0.7546771E-02  0.1126479E+00
        -11   -1    0    0    0    0  0.00000000000E+00  0.00000000000E+00  0.12500000000E+03  0.12500000000E+03  0.00000000000E+00 0.  1.
         11   -1    0    0    0    0 -0.00000000000E+00 -0.00000000000E+00 -0.12500000000E+03  0.12500000000E+03  0.00000000000E+00 0. -1.
         24    1    1    2    0    0  0.43318998481E+01 -0.72677536496E+01  0.95321552895E+02  0.12500000000E+03  0.80419002446E+02 0.  1.
        -24    1    1    2    0    0 -0.43318998481E+01  0.72677536496E+01 -0.95321552895E+02  0.12500000000E+03  0.80419002446E+02 0. -1.
</event>
<event>
 4    1  0.1653896E-001  0.1250000E+03  0.7546771E-02  0.1126479E+00
        -11   -1    0    0    0    0  0.00000000000E+00  0.00000000000E+00  0.12500000000E+03  0.12500000000E+03  0.00000000000E+00 0.  1.
         11   -1    0    0    0    0 -0.00000000000E+00 -0.00000000000E+00 -0.12500000000E+03  0.12500000000E+03  0.00000000000E+00 0. -1.
         24    1    1    2    0    0  0.28699144857E+02 -0.26127086304E+02  0.87472958629E+02  0.12500000000E+03  0.80419002446E+02 0.  1.
        -24    1    1    2    0    0 -0.28699144857E+02  0.26127086304E+02 -0.87472958629E+02  0.12500000000E+03  0.80419002446E+02 0. -1.
</event>
<event>
 4    1  0.1653896E-001  0.1250000E+03  0.7546771E-02  0.1126479E+00
        -11   -1    0    0    0    0  0.00000000000E+00  0.00000000000E+00  0.12500000000E+03  0.12500000000E+03  0.00000000000E+00 0.  1.
         11   -1    0    0    0    0 -0.00000000000E+00 -0.00000000000E+00 -0.12500000000E+03  0.12500000000E+03  0.00000000000E+00 0. -1.
         24    1    1    2    0    0 -0.29254639905E+02 -0.45120360613E+02  0.79158721237E+02  0.12500000000E+03  0.80419002446E+02 0.  1.
        -24    1    1    2    0    0  0.29254639905E+02  0.45120360613E+02 -0.79158721237E+02  0.12500000000E+03  0.80419002446E+02 0. -1.
</event>
<event>
 4    1  0.1653896E-001  0.1250000E+03  0.7546771E-02  0.1126479E+00
        -11   -1    0    0    0    0  0.00000000000E+00  0.00000000000E+00  0.12500000000E+03  0.12500000000E+03  0.00000000000E+00 0.  1.
         11   -1    0    0    0    0 -0.00000000000E+00 -0.00000000000E+00 -0.12500000000E+03  0.12500000000E+03  0.00000000000E+00 0. -1.
         24    1    1    2    0    0  0.59238791997E+02  0.33806452925E+01 -0.75080761889E+02  0.12500000000E+03  0.80419002446E+02 0.  0.
        -24    1    1    2    0    0 -0.59238791997E+02 -0.33806452925E+01  0.75080761889E+02  0.12500000000E+03  0.80419002446E+02 0.  1.
</event>
<event>
 4    1  0.1653896E-001  0.1250000E+03  0.7546771E-02  0.1126479E+00
        -11   -1    0    0    0    0  0.00000000000E+00  0.00000000000E+00  0.12500000000E+03  0.12500000000E+03  0.00000000000E+00 0.  1.
         11   -1    0    0    0    0 -0.00000000000E+00 -0.00000000000E+00 -0.12500000000E+03  0.12500000000E+03  0.00000000000E+00 0. -1.
         24    1    1    2    0    0  0.29925326482E+02 -0.17226834767E+02  0.89249622097E+02  0.12500000000E+03  0.80419002446E+02 0.  1.
        -24    1    1    2    0    0 -0.29925326482E+02  0.17226834767E+02 -0.89249622097E+02  0.12500000000E+03  0.80419002446E+02 0. -1.
</event>
<event>
 4    1  0.1653896E-001  0.1250000E+03  0.7546771E-02  0.1126479E+00
        -11   -1    0    0    0    0  0.00000000000E+00  0.00000000000E+00  0.12500000000E+03  0.12500000000E+03  0.00000000000E+00 0.  1.
         11   -1    0    0    0    0 -0.00000000000E+00 -0.00000000000E+00 -0.12500000000E+03  0.12500000000E+03  0.00000000000E+00 0. -1.
         24    1    1    2    0    0 -0.88254903023E+02  0.19685198325E+01  0.36945650186E+02  0.12500000000E+03  0.80419002446E+02 0. -1.
        -24    1    1    2    0    0  0.88254903023E+02 -0.19685198325E+01 -0.36945650186E+02  0.12500000000E+03  0.80419002446E+02 0.  1.
</event>
<event>
 4    1  0.1653896E-001  0.1250000E+03  0.7546771E-02  0.1126479E+00
        -11   -1    0    0    0    0  0.00000000000E+00  0.00000000000E+00  0.12500000000E+03  0.12500000000E+03  0.00000000000E+00 0.  1.
         11   -1    0    0    0    0 -0.00000000000E+00 -0.00000000000E+00 -0.12500000000E+03  0.12500000000E+03  0.00000000000E+00 0. -1.
         24    1    1    2    0    0  0.26245221792E+01 -0.18521608383E+02  0.93850124943E+02  0.12500000000E+03  0.80419002446E+02 0.  0.
        -24    1    1    2    0    0 -0.26245221792E+01  0.18521608383E+02 -0.93850124943E+02  0.12500000000E+03  0.80419002446E+02 0. -1.
</event>
<event>
 4    1  0.1653896E-001  0.1250000E+03  0.7546771E-02  0.1126479E+00
        -11   -1    0    0    0    0  0.00000000000E+00  0.00000000000E+00  0.12500000000E+03  0.12500000000E+03  0.00000000000E+00 0.  1.
         11   -1    0    0    0    0 -0.00000000000E+00 -0.00000000000E+00 -0.12500000000E+03  0.12500000000E+03  0.00000000000E+00 0. -1.
         24    1    1    2    0    0 -0.80490045968E+02 -0.49586203929E+02  0.14844019862E+02  0.12500000000E+03  0.80419002446E+02 0. -1.
        -24    1    1    2    0    0  0.80490045968E+02  0.49586203929E+02 -0.14844019862E+02  0.12500000000E+03  0.80419002446E+02 0.  0.
</event>
<event>
 4    1  0.1653896E-001  0.1250000E+03  0.7546771E-02  0.1126479E+00
        -11   -1    0    0    0    0  0.00000000000E+00  0.00000000000E+00  0.12500000000E+03  0.12500000000E+03  0.00000000000E+00 0.  1.
         11   -1    0    0    0    0 -0.00000000000E+00 -0.00000000000E+00 -0.12500000000E+03  0.12500000000E+03  0.00000000000E+00 0. -1.
         24    1    1    2    0    0  0.15325117243E+02  0.26138146437E+02  0.90772915167E+02  0.12500000000E+03  0.80419002446E+02 0.  1.
        -24    1    1    2    0    0 -0.15325117243E+02 -0.26138146437E+02 -0.90772915167E+02  0.12500000000E+03  0.80419002446E+02 0. -1.
</event>
<event>
 4    1  0.1653896E-001  0.1250000E+03  0.7546771E-02  0.1126479E+00
        -11   -1    0    0    0    0  0.00000000000E+00  0.00000000000E+00  0.12500000000E+03  0.12500000000E+03  0.00000000000E+00 0.  1.
         11   -1    0    0    0    0 -0.00000000000E+00 -0.00000000000E+00 -0.12500000000E+03  0.12500000000E+03  0.00000000000E+00 0. -1.
         24    1    1    2    0    0 -0.19739210616E+02  0.87311996249E-01  0.93638346774E+02  0.12500000000E+03  0.80419002446E+02 0.  0.
        -24    1    1    2    0    0  0.19739210616E+02 -0.87311996249E-01 -0.93638346774E+02  0.12500000000E+03  0.80419002446E+02 0. -1.
</event>
<event>
 4    1  0.1653896E-001  0.1250000E+03  0.7546771E-02  0.1126479E+00
        -11   -1    0    0    0    0  0.00000000000E+00  0.00000000000E+00  0.12500000000E+03  0.12500000000E+03  0.00000000000E+00 0.  1.
         11   -1    0    0    0    0 -0.00000000000E+00 -0.00000000000E+00 -0.12500000000E+03  0.12500000000E+03  0.00000000000E+00 0. -1.
         24    1    1    2    0    0  0.46935933753E+02 -0.47905589178E+02  0.68263143012E+02  0.12500000000E+03  0.80419002446E+02 0.  1.
        -24    1    1    2    0    0 -0.46935933753E+02  0.47905589178E+02 -0.68263143012E+02  0.12500000000E+03  0.80419002446E+02 0. -1.
</event>
<event>
 4    1  0.1653896E-001  0.1250000E+03  0.7546771E-02  0.1126479E+00
        -11   -1    0    0    0    0  0.00000000000E+00  0.00000000000E+00  0.12500000000E+03  0.12500000000E+03  0.00000000000E+00 0.  1.
         11   -1    0    0    0    0 -0.00000000000E+00 -0.00000000000E+00 -0.12500000000E+03  0.12500000000E+03  0.00000000000E+00 0. -1.
         24    1    1    2    0    0 -0.13143220772E+02  0.19675717675E+02  0.92724893784E+02  0.12500000000E+03  0.80419002446E+02 0.  1.
        -24    1    1    2    0    0  0.13143220772E+02 -0.19675717675E+02 -0.92724893784E+02  0.12500000000E+03  0.80419002446E+02 0. -1.
</event>
<event>
 4    1  0.1653896E-001  0.1250000E+03  0.7546771E-02  0.1126479E+00
        -11   -1    0    0    0    0  0.00000000000E+00  0.00000000000E+00  0.12500000000E+03  0.12500000000E+03  0.00000000000E+00 0.  1.
         11   -1    0    0    0    0 -0.00000000000E+00 -0.00000000000E+00 -0.12500000000E+03  0.12500000000E+03  0.00000000000E+00 0. -1.
         24    1    1    2    0    0 -0.85378597085E+02 -0.47307768135E+01  0.42963926219E+02  0.12500000000E+03  0.80419002446E+02 0.  0.
        -24    1    1    2    0    0  0.85378597085E+02  0.47307768135E+01 -0.42963926219E+02  0.12500000000E+03  0.80419002446E+02 0. -1.
</event>
<event>
 4    1  0.1653896E-001  0.1250000E+03  0.7546771E-02  0.1126479E+00
        -11   -1    0    0    0    0  0.00000000000E+00  0.00000000000E+00  0.12500000000E+03  0.12500000000E+03  0.00000000000E+00 0.  1.
         11   -1    0    0    0    0 -0.00000000000E+00 -0.00000000000E+00 -0.12500000000E+03  0.12500000000E+03  0.00000000000E+00 0. -1.
         24    1    1    2    0    0 -0.26269988414E+02  0.90379385200E+02  0.17298511072E+02  0.12500000000E+03  0.80419002446E+02 0.  0.
        -24    1    1    2    0    0  0.26269988414E+02 -0.90379385200E+02 -0.17298511072E+02  0.12500000000E+03  0.80419002446E+02 0.  0.
</event>
<event>
 4    1  0.1653896E-001  0.1250000E+03  0.7546771E-02  0.1126479E+00
        -11   -1    0    0    0    0  0.00000000000E+00  0.00000000000E+00  0.12500000000E+03  0.12500000000E+03  0.00000000000E+00 0.  1.
         11   -1    0    0    0    0 -0.00000000000E+00 -0.00000000000E+00 -0.12500000000E+03  0.12500000000E+03  0.00000000000E+00 0. -1.
         24    1    1    2    0    0  0.30049974488E+02  0.11208605780E+02  0.90161800311E+02  0.12500000000E+03  0.80419002446E+02 0.  1.
        -24    1    1    2    0    0 -0.30049974488E+02 -0.11208605780E+02 -0.90161800311E+02  0.12500000000E+03  0.80419002446E+02 0. -1.
</event>
<event>
 4    1  0.1653896E-001  0.1250000E+03  0.7546771E-02  0.1126479E+00
        -11   -1    0    0    0    0  0.00000000000E+00  0.00000000000E+00  0.12500000000E+03  0.12500000000E+03  0.00000000000E+00 0.  1.
         11   -1    0    0    0    0 -0.00000000000E+00 -0.00000000000E+00 -0.12500000000E+03  0.12500000000E+03  0.00000000000E+00 0. -1.
         24    1    1    2    0    0  0.21800851990E+02 -0.30897208938E+01  0.93128730921E+02  0.12500000000E+03  0.80419002446E+02 0.  1.
        -24    1    1    2    0    0 -0.21800851990E+02  0.30897208938E+01 -0.93128730921E+02  0.12500000000E+03  0.80419002446E+02 0.  0.
</event>
<event>
 4    1  0.1653896E-001  0.1250000E+03  0.7546771E-02  0.1126479E+00
        -11   -1    0    0    0    0  0.00000000000E+00  0.00000000000E+00  0.12500000000E+03  0.12500000000E+03  0.00000000000E+00 0.  1.
         11   -1    0    0    0    0 -0.00000000000E+00 -0.00000000000E+00 -0.12500000000E+03  0.12500000000E+03  0.00000000000E+00 0. -1.
         24    1    1    2    0    0  0.74204228782E+02  0.13414424276E+02  0.58920027986E+02  0.12500000000E+03  0.80419002446E+02 0.  1.
        -24    1    1    2    0    0 -0.74204228782E+02 -0.13414424276E+02 -0.58920027986E+02  0.12500000000E+03  0.80419002446E+02 0. -1.
</event>
<event>
 4    1  0.1653896E-001  0.1250000E+03  0.7546771E-02  0.1126479E+00
        -11   -1    0    0    0    0  0.00000000000E+00  0.00000000000E+00  0.12500000000E+03  0.12500000000E+03  0.00000000000E+00 0.  1.
         11   -1    0    0    0    0 -0.00000000000E+00 -0.00000000000E+00 -0.12500000000E+03  0.12500000000E+03  0.00000000000E+00 0. -1.
         24    1    1    2    0    0  0.25935053007E-01  0.31179040380E+02  0.90474586564E+02  0.12500000000E+03  0.80419002446E+02 0.  1.
        -24    1    1    2    0    0 -0.25935053007E-01 -0.31179040380E+02 -0.90474586564E+02  0.12500000000E+03  0.80419002446E+02 0. -1.
</event>
<event>
 4    1  0.1653896E-001  0.1250000E+03  0.7546771E-02  0.1126479E+00
        -11   -1    0    0    0    0  0.00000000000E+00  0.00000000000E+00  0.12500000000E+03  0.12500000000E+03  0.00000000000E+00 0.  1.
         11   -1    0    0    0    0 -0.00000000000E+00 -0.00000000000E+00 -0.12500000000E+03  0.12500000000E+03  0.00000000000E+00 0. -1.
         24    1    1    2    0    0 -0.89658778382E+02  0.14464164826E+01 -0.33421480877E+02  0.12500000000E+03  0.80419002446E+02 0.  0.
        -24    1    1    2    0    0  0.89658778382E+02 -0.14464164826E+01  0.33421480877E+02  0.12500000000E+03  0.80419002446E+02 0. -1.
</event>
<event>
 4    1  0.1653896E-001  0.1250000E+03  0.7546771E-02  0.1126479E+00
        -11   -1    0    0    0    0  0.00000000000E+00  0.00000000000E+00  0.12500000000E+03  0.12500000000E+03  0.00000000000E+00 0.  1.
         11   -1    0    0    0    0 -0.00000000000E+00 -0.00000000000E+00 -0.12500000000E+03  0.12500000000E+03  0.00000000000E+00 0. -1.
         24    1    1    2    0    0 -0.36468317843E+02 -0.38707445961E+02  0.79558654253E+02  0.12500000000E+03  0.80419002446E+02 0.  1.
        -24    1    1    2    0    0  0.36468317843E+02  0.38707445961E+02 -0.79558654253E+02  0.12500000000E+03  0.80419002446E+02 0. -1.
</event>
<event>
 4    1  0.1653896E-001  0.1250000E+03  0.7546771E-02  0.1126479E+00
        -11   -1    0    0    0    0  0.00000000000E+00  0.00000000000E+00  0.12500000000E+03  0.12500000000E+03  0.00000000000E+00 0.  1.
         11   -1    0    0    0    0 -0.00000000000E+00 -0.00000000000E+00 -0.12500000000E+03  0.12500000000E+03  0.00000000000E+00 0. -1.
         24    1    1    2    0    0 -0.54383338076E+02 -0.60208337318E+02  0.50746356547E+02  0.12500000000E+03  0.80419002446E+02 0.  1.
        -24    1    1    2    0    0  0.54383338076E+02  0.60208337318E+02 -0.50746356547E+02  0.12500000000E+03  0.80419002446E+02 0. -1.
</event>
<event>
 4    1  0.1653896E-001  0.1250000E+03  0.7546771E-02  0.1126479E+00
        -11   -1    0    0    0    0  0.00000000000E+00  0.00000000000E+00  0.12500000000E+03  0.12500000000E+03  0.00000000000E+00 0.  1.
         11   -1    0    0    0    0 -0.00000000000E+00 -0.00000000000E+00 -0.12500000000E+03  0.12500000000E+03  0.00000000000E+00 0. -1.
         24    1    1    2    0    0 -0.63680847556E+01  0.13241176680E+02  0.94561634833E+02  0.12500000000E+03  0.80419002446E+02 0.  1.
        -24    1    1    2    0    0  0.63680847556E+01 -0.13241176680E+02 -0.94561634833E+02  0.12500000000E+03  0.80419002446E+02 0. -1.
</event>
<event>
 4    1  0.1653896E-001  0.1250000E+03  0.7546771E-02  0.1126479E+00
        -11   -1    0    0    0    0  0.00000000000E+00  0.00000000000E+00  0.12500000000E+03  0.12500000000E+03  0.00000000000E+00 0.  1.
         11   -1    0    0    0    0 -0.00000000000E+00 -0.00000000000E+00 -0.12500000000E+03  0.12500000000E+03  0.00000000000E+00 0. -1.
         24    1    1    2    0    0 -0.13867456033E+02 -0.40717636667E+02  0.85484219439E+02  0.12500000000E+03  0.80419002446E+02 0.  1.
        -24    1    1    2    0    0  0.13867456033E+02  0.40717636667E+02 -0.85484219439E+02  0.12500000000E+03  0.80419002446E+02 0. -1.
</event>
<event>
 4    1  0.1653896E-001  0.1250000E+03  0.7546771E-02  0.1126479E+00
        -11   -1    0    0    0    0  0.00000000000E+00  0.00000000000E+00  0.12500000000E+03  0.12500000000E+03  0.00000000000E+00 0.  1.
         11   -1    0    0    0    0 -0.00000000000E+00 -0.00000000000E+00 -0.12500000000E+03  0.12500000000E+03  0.00000000000E+00 0. -1.
         24    1    1    2    0    0 -0.17197304779E+02 -0.38677589643E+02  0.85825874964E+02  0.12500000000E+03  0.80419002446E+02 0.  1.
        -24    1    1    2    0    0  0.17197304779E+02  0.38677589643E+02 -0.85825874964E+02  0.12500000000E+03  0.80419002446E+02 0. -1.
</event>
<event>
 4    1  0.1653896E-001  0.1250000E+03  0.7546771E-02  0.1126479E+00
        -11   -1    0    0    0    0  0.00000000000E+00  0.00000000000E+00  0.12500000000E+03  0.12500000000E+03  0.00000000000E+00 0.  1.
         11   -1    0    0    0    0 -0.00000000000E+00 -0.00000000000E+00 -0.12500000000E+03  0.12500000000E+03  0.00000000000E+00 0. -1.
         24    1    1    2    0    0 -0.16768474481E+01 -0.14261632505E+02  0.94612779615E+02  0.12500000000E+03  0.80419002446E+02 0.  1.
        -24    1    1    2    0    0  0.16768474481E+01  0.14261632505E+02 -0.94612779615E+02  0.12500000000E+03  0.80419002446E+02 0. -1.
</event>
<event>
 4    1  0.1653896E-001  0.1250000E+03  0.7546771E-02  0.1126479E+00
        -11   -1    0    0    0    0  0.00000000000E+00  0.00000000000E+00  0.12500000000E+03  0.12500000000E+03  0.00000000000E+00 0.  1.
         11   -1    0    0    0    0 -0.00000000000E+00 -0.00000000000E+00 -0.12500000000E+03  0.12500000000E+03  0.00000000000E+00 0. -1.
         24    1    1    2    0    0 -0.27354989459E+00  0.12797533358E+02  0.94836345122E+02  0.12500000000E+03  0.80419002446E+02 0.  0.
        -24    1    1    2    0    0  0.27354989459E+00 -0.12797533358E+02 -0.94836345122E+02  0.12500000000E+03  0.80419002446E+02 0.  0.
</event>
<event>
 4    1  0.1653896E-001  0.1250000E+03  0.7546771E-02  0.1126479E+00
        -11   -1    0    0    0    0  0.00000000000E+00  0.00000000000E+00  0.12500000000E+03  0.12500000000E+03  0.00000000000E+00 0.  1.
         11   -1    0    0    0    0 -0.00000000000E+00 -0.00000000000E+00 -0.12500000000E+03  0.12500000000E+03  0.00000000000E+00 0. -1.
         24    1    1    2    0    0  0.21504678781E+02 -0.69839021638E+02  0.61788703602E+02  0.12500000000E+03  0.80419002446E+02 0.  1.
        -24    1    1    2    0    0 -0.21504678781E+02  0.69839021638E+02 -0.61788703602E+02  0.12500000000E+03  0.80419002446E+02 0. -1.
</event>
<event>
 4    1  0.1653896E-001  0.1250000E+03  0.7546771E-02  0.1126479E+00
        -11   -1    0    0    0    0  0.00000000000E+00  0.00000000000E+00  0.12500000000E+03  0.12500000000E+03  0.00000000000E+00 0.  1.
         11   -1    0    0    0    0 -0.00000000000E+00 -0.00000000000E+00 -0.12500000000E+03  0.12500000000E+03  0.00000000000E+00 0. -1.
         24    1    1    2    0    0 -0.25905474401E+02  0.34550194134E+02  0.85398914086E+02  0.12500000000E+03  0.80419002446E+02 0.  1.
        -24    1    1    2    0    0  0.25905474401E+02 -0.34550194134E+02 -0.85398914086E+02  0.12500000000E+03  0.80419002446E+02 0. -1.
</event>
<event>
 4    1  0.1653896E-001  0.1250000E+03  0.7546771E-02  0.1126479E+00
        -11   -1    0    0    0    0  0.00000000000E+00  0.00000000000E+00  0.12500000000E+03  0.12500000000E+03  0.00000000000E+00 0.  1.
         11   -1    0    0    0    0 -0.00000000000E+00 -0.00000000000E+00 -0.12500000000E+03  0.12500000000E+03  0.00000000000E+00 0. -1.
         24    1    1    2    0    0  0.39436508664E+02  0.56590567907E+02  0.66332898730E+02  0.12500000000E+03  0.80419002446E+02 0.  1.
        -24    1    1    2    0    0 -0.39436508664E+02 -0.56590567907E+02 -0.66332898730E+02  0.12500000000E+03  0.80419002446E+02 0. -1.
</event>
<event>
 4    1  0.1653896E-001  0.1250000E+03  0.7546771E-02  0.1126479E+00
        -11   -1    0    0    0    0  0.00000000000E+00  0.00000000000E+00  0.12500000000E+03  0.12500000000E+03  0.00000000000E+00 0.  1.
         11   -1    0    0    0    0 -0.00000000000E+00 -0.00000000000E+00 -0.12500000000E+03  0.12500000000E+03  0.00000000000E+00 0. -1.
         24    1    1    2    0    0 -0.24610889903E+02 -0.10131516445E+02  0.91920838325E+02  0.12500000000E+03  0.80419002446E+02 0.  1.
        -24    1    1    2    0    0  0.24610889903E+02  0.10131516445E+02 -0.91920838325E+02  0.12500000000E+03  0.80419002446E+02 0. -1.
</event>
<event>
 4    1  0.1653896E-001  0.1250000E+03  0.7546771E-02  0.1126479E+00
        -11   -1    0    0    0    0  0.00000000000E+00  0.00000000000E+00  0.12500000000E+03  0.12500000000E+03  0.00000000000E+00 0.  1.
         11   -1    0    0    0    0 -0.00000000000E+00 -0.00000000000E+00 -0.12500000000E+03  0.12500000000E+03  0.00000000000E+00 0. -1.
         24    1    1    2    0    0 -0.42629625461E+02  0.29103321697E+02  0.80582229709E+02  0.12500000000E+03  0.80419002446E+02 0.  1.
        -24    1    1    2    0    0  0.42629625461E+02 -0.29103321697E+02 -0.80582229709E+02  0.12500000000E+03  0.80419002446E+02 0. -1.
</event>
<event>
 4    1  0.1653896E-001  0.1250000E+03  0.7546771E-02  0.1126479E+00
        -11   -1    0    0    0    0  0.00000000000E+00  0.00000000000E+00  0.12500000000E+03  0.12500000000E+03  0.00000000000E+00 0.  1.
         11   -1    0    0    0    0 -0.00000000000E+00 -0.00000000000E+00 -0.12500000000E+03  0.12500000000E+03  0.00000000000E+00 0. -1.
         24    1    1    2    0    0  0.43527551935E+02 -0.47235829498E+02  0.70935975921E+02  0.12500000000E+03  0.80419002446E+02 0.  1.
        -24    1    1    2    0    0 -0.43527551935E+02  0.47235829498E+02 -0.70935975921E+02  0.12500000000E+03  0.80419002446E+02 0. -1.
</event>
<event>
 4    1  0.1653896E-001  0.1250000E+03  0.7546771E-02  0.1126479E+00
        -11   -1    0    0    0    0  0.00000000000E+00  0.00000000000E+00  0.12500000000E+03  0.12500000000E+03  0.00000000000E+00 0.  1.
         11   -1    0    0    0    0 -0.00000000000E+00 -0.00000000000E+00 -0.12500000000E+03  0.12500000000E+03  0.00000000000E+00 0. -1.
         24    1    1    2    0    0  0.78736452610E+00 -0.79195698903E+02  0.53714107811E+02  0.12500000000E+03  0.80419002446E+02 0.  1.
        -24    1    1    2    0    0 -0.78736452610E+00  0.79195698903E+02 -0.53714107811E+02  0.12500000000E+03  0.80419002446E+02 0. -1.
</event>
<event>
 4    1  0.1653896E-001  0.1250000E+03  0.7546771E-02  0.1126479E+00
        -11   -1    0    0    0    0  0.00000000000E+00  0.00000000000E+00  0.12500000000E+03  0.12500000000E+03  0.00000000000E+00 0.  1.
         11   -1    0    0    0    0 -0.00000000000E+00 -0.00000000000E+00 -0.12500000000E+03  0.12500000000E+03  0.00000000000E+00 0. -1.
         24    1    1    2    0    0 -0.16537082683E+02 -0.76283633428E+01  0.93947416221E+02  0.12500000000E+03  0.80419002446E+02 0.  1.
        -24    1    1    2    0    0  0.16537082683E+02  0.76283633428E+01 -0.93947416221E+02  0.12500000000E+03  0.80419002446E+02 0. -1.
</event>
<event>
 4    1  0.1653896E-001  0.1250000E+03  0.7546771E-02  0.1126479E+00
        -11   -1    0    0    0    0  0.00000000000E+00  0.00000000000E+00  0.12500000000E+03  0.12500000000E+03  0.00000000000E+00 0.  1.
         11   -1    0    0    0    0 -0.00000000000E+00 -0.00000000000E+00 -0.12500000000E+03  0.12500000000E+03  0.00000000000E+00 0. -1.
         24    1    1    2    0    0  0.87640606398E+02  0.26609243072E+02  0.27728258852E+02  0.12500000000E+03  0.80419002446E+02 0.  1.
        -24    1    1    2    0    0 -0.87640606398E+02 -0.26609243072E+02 -0.27728258852E+02  0.12500000000E+03  0.80419002446E+02 0. -1.
</event>
<event>
 4    1  0.1653896E-001  0.1250000E+03  0.7546771E-02  0.1126479E+00
        -11   -1    0    0    0    0  0.00000000000E+00  0.00000000000E+00  0.12500000000E+03  0.12500000000E+03  0.00000000000E+00 0.  1.
         11   -1    0    0    0    0 -0.00000000000E+00 -0.00000000000E+00 -0.12500000000E+03  0.12500000000E+03  0.00000000000E+00 0. -1.
         24    1    1    2    0    0  0.59190083850E+01  0.57873743272E-01  0.95513067357E+02  0.12500000000E+03  0.80419002446E+02 0.  1.
        -24    1    1    2    0    0 -0.59190083850E+01 -0.57873743272E-01 -0.95513067357E+02  0.12500000000E+03  0.80419002446E+02 0.  0.
</event>
<event>
 4    1  0.1653896E-001  0.1250000E+03  0.7546771E-02  0.1126479E+00
        -11   -1    0    0    0    0  0.00000000000E+00  0.00000000000E+00  0.12500000000E+03  0.12500000000E+03  0.00000000000E+00 0.  1.
         11   -1    0    0    0    0 -0.00000000000E+00 -0.00000000000E+00 -0.12500000000E+03  0.12500000000E+03  0.00000000000E+00 0. -1.
         24    1    1    2    0    0  0.18989715676E+02  0.49925835360E+02  0.79401421321E+02  0.12500000000E+03  0.80419002446E+02 0.  1.
        -24    1    1    2    0    0 -0.18989715676E+02 -0.49925835360E+02 -0.79401421321E+02  0.12500000000E+03  0.80419002446E+02 0. -1.
</event>
<event>
 4    1  0.1653896E-001  0.1250000E+03  0.7546771E-02  0.1126479E+00
        -11   -1    0    0    0    0  0.00000000000E+00  0.00000000000E+00  0.12500000000E+03  0.12500000000E+03  0.00000000000E+00 0.  1.
         11   -1    0    0    0    0 -0.00000000000E+00 -0.00000000000E+00 -0.12500000000E+03  0.12500000000E+03  0.00000000000E+00 0. -1.
         24    1    1    2    0    0  0.56225768872E+02  0.69945958442E+02  0.33226643799E+02  0.12500000000E+03  0.80419002446E+02 0.  1.
        -24    1    1    2    0    0 -0.56225768872E+02 -0.69945958442E+02 -0.33226643799E+02  0.12500000000E+03  0.80419002446E+02 0.  0.
</event>
<event>
 4    1  0.1653896E-001  0.1250000E+03  0.7546771E-02  0.1126479E+00
        -11   -1    0    0    0    0  0.00000000000E+00  0.00000000000E+00  0.12500000000E+03  0.12500000000E+03  0.00000000000E+00 0.  1.
         11   -1    0    0    0    0 -0.00000000000E+00 -0.00000000000E+00 -0.12500000000E+03  0.12500000000E+03  0.00000000000E+00 0. -1.
         24    1    1    2    0    0 -0.51144022781E+02 -0.70826120825E+02 -0.39060639885E+02  0.12500000000E+03  0.80419002446E+02 0. -1.
        -24    1    1    2    0    0  0.51144022781E+02  0.70826120825E+02  0.39060639885E+02  0.12500000000E+03  0.80419002446E+02 0.  1.
</event>
<event>
 4    1  0.1653896E-001  0.1250000E+03  0.7546771E-02  0.1126479E+00
        -11   -1    0    0    0    0  0.00000000000E+00  0.00000000000E+00  0.12500000000E+03  0.12500000000E+03  0.00000000000E+00 0.  1.
         11   -1    0    0    0    0 -0.00000000000E+00 -0.00000000000E+00 -0.12500000000E+03  0.12500000000E+03  0.00000000000E+00 0. -1.
         24    1    1    2    0    0  0.40858602622E+02 -0.75946005905E+01  0.86201396040E+02  0.12500000000E+03  0.80419002446E+02 0.  1.
        -24    1    1    2    0    0 -0.40858602622E+02  0.75946005905E+01 -0.86201396040E+02  0.12500000000E+03  0.80419002446E+02 0. -1.
</event>
<event>
 4    1  0.1653896E-001  0.1250000E+03  0.7546771E-02  0.1126479E+00
        -11   -1    0    0    0    0  0.00000000000E+00  0.00000000000E+00  0.12500000000E+03  0.12500000000E+03  0.00000000000E+00 0.  1.
         11   -1    0    0    0    0 -0.00000000000E+00 -0.00000000000E+00 -0.12500000000E+03  0.12500000000E+03  0.00000000000E+00 0. -1.
         24    1    1    2    0    0 -0.95517300668E+02 -0.26289546827E+01  0.52266543722E+01  0.12500000000E+03  0.80419002446E+02 0. -1.
        -24    1    1    2    0    0  0.95517300668E+02  0.26289546827E+01 -0.52266543722E+01  0.12500000000E+03  0.80419002446E+02 0.  0.
</event>
<event>
 4    1  0.1653896E-001  0.1250000E+03  0.7546771E-02  0.1126479E+00
        -11   -1    0    0    0    0  0.00000000000E+00  0.00000000000E+00  0.12500000000E+03  0.12500000000E+03  0.00000000000E+00 0.  1.
         11   -1    0    0    0    0 -0.00000000000E+00 -0.00000000000E+00 -0.12500000000E+03  0.12500000000E+03  0.00000000000E+00 0. -1.
         24    1    1    2    0    0 -0.69824244500E+02 -0.65304240747E+02 -0.42089269601E+01  0.12500000000E+03  0.80419002446E+02 0.  0.
        -24    1    1    2    0    0  0.69824244500E+02  0.65304240747E+02  0.42089269601E+01  0.12500000000E+03  0.80419002446E+02 0.  1.
</event>
<event>
 4    1  0.1653896E-001  0.1250000E+03  0.7546771E-02  0.1126479E+00
        -11   -1    0    0    0    0  0.00000000000E+00  0.00000000000E+00  0.12500000000E+03  0.12500000000E+03  0.00000000000E+00 0.  1.
         11   -1    0    0    0    0 -0.00000000000E+00 -0.00000000000E+00 -0.12500000000E+03  0.12500000000E+03  0.00000000000E+00 0. -1.
         24    1    1    2    0    0 -0.67587492866E+02  0.67513570356E+02  0.56242929802E+01  0.12500000000E+03  0.80419002446E+02 0.  0.
        -24    1    1    2    0    0  0.67587492866E+02 -0.67513570356E+02 -0.56242929802E+01  0.12500000000E+03  0.80419002446E+02 0. -1.
</event>
<event>
 4    1  0.1653896E-001  0.1250000E+03  0.7546771E-02  0.1126479E+00
        -11   -1    0    0    0    0  0.00000000000E+00  0.00000000000E+00  0.12500000000E+03  0.12500000000E+03  0.00000000000E+00 0.  1.
         11   -1    0    0    0    0 -0.00000000000E+00 -0.00000000000E+00 -0.12500000000E+03  0.12500000000E+03  0.00000000000E+00 0. -1.
         24    1    1    2    0    0 -0.21807979579E+01  0.22567656758E+01 -0.95644838724E+02  0.12500000000E+03  0.80419002446E+02 0. -1.
        -24    1    1    2    0    0  0.21807979579E+01 -0.22567656758E+01  0.95644838724E+02  0.12500000000E+03  0.80419002446E+02 0.  0.
</event>
<event>
 4    1  0.1653896E-001  0.1250000E+03  0.7546771E-02  0.1126479E+00
        -11   -1    0    0    0    0  0.00000000000E+00  0.00000000000E+00  0.12500000000E+03  0.12500000000E+03  0.00000000000E+00 0.  1.
         11   -1    0    0    0    0 -0.00000000000E+00 -0.00000000000E+00 -0.12500000000E+03  0.12500000000E+03  0.00000000000E+00 0. -1.
         24    1    1    2    0    0  0.24156493008E+02  0.17313078760E+02  0.90964307259E+02  0.12500000000E+03  0.80419002446E+02 0.  1.
        -24    1    1    2    0    0 -0.24156493008E+02 -0.17313078760E+02 -0.90964307259E+02  0.12500000000E+03  0.80419002446E+02 0. -1.
</event>
<event>
 4    1  0.1653896E-001  0.1250000E+03  0.7546771E-02  0.1126479E+00
        -11   -1    0    0    0    0  0.00000000000E+00  0.00000000000E+00  0.12500000000E+03  0.12500000000E+03  0.00000000000E+00 0.  1.
         11   -1    0    0    0    0 -0.00000000000E+00 -0.00000000000E+00 -0.12500000000E+03  0.12500000000E+03  0.00000000000E+00 0. -1.
         24    1    1    2    0    0 -0.90191228672E+02 -0.22662409240E+02  0.22577456095E+02  0.12500000000E+03  0.80419002446E+02 0.  1.
        -24    1    1    2    0    0  0.90191228672E+02  0.22662409240E+02 -0.22577456095E+02  0.12500000000E+03  0.80419002446E+02 0. -1.
</event>
<event>
 4    1  0.1653896E-001  0.1250000E+03  0.7546771E-02  0.1126479E+00
        -11   -1    0    0    0    0  0.00000000000E+00  0.00000000000E+00  0.12500000000E+03  0.12500000000E+03  0.00000000000E+00 0.  1.
         11   -1    0    0    0    0 -0.00000000000E+00 -0.00000000000E+00 -0.12500000000E+03  0.12500000000E+03  0.00000000000E+00 0. -1.
         24    1    1    2    0    0  0.43027617598E+02 -0.15170210159E+02  0.84120585431E+02  0.12500000000E+03  0.80419002446E+02 0.  1.
        -24    1    1    2    0    0 -0.43027617598E+02  0.15170210159E+02 -0.84120585431E+02  0.12500000000E+03  0.80419002446E+02 0. -1.
</event>
<event>
 4    1  0.1653896E-001  0.1250000E+03  0.7546771E-02  0.1126479E+00
        -11   -1    0    0    0    0  0.00000000000E+00  0.00000000000E+00  0.12500000000E+03  0.12500000000E+03  0.00000000000E+00 0.  1.
         11   -1    0    0    0    0 -0.00000000000E+00 -0.00000000000E+00 -0.12500000000E+03  0.12500000000E+03  0.00000000000E+00 0. -1.
         24    1    1    2    0    0  0.10951381719E+02  0.84885114591E+01  0.94687889708E+02  0.12500000000E+03  0.80419002446E+02 0.  0.
        -24    1    1    2    0    0 -0.10951381719E+02 -0.84885114591E+01 -0.94687889708E+02  0.12500000000E+03  0.80419002446E+02 0. -1.
</event>
<event>
 4    1  0.1653896E-001  0.1250000E+03  0.7546771E-02  0.1126479E+00
        -11   -1    0    0    0    0  0.00000000000E+00  0.00000000000E+00  0.12500000000E+03  0.12500000000E+03  0.00000000000E+00 0.  1.
         11   -1    0    0    0    0 -0.00000000000E+00 -0.00000000000E+00 -0.12500000000E+03  0.12500000000E+03  0.00000000000E+00 0. -1.
         24    1    1    2    0    0  0.36186994733E+02  0.43220316058E+02  0.77332333067E+02  0.12500000000E+03  0.80419002446E+02 0.  1.
        -24    1    1    2    0    0 -0.36186994733E+02 -0.43220316058E+02 -0.77332333067E+02  0.12500000000E+03  0.80419002446E+02 0. -1.
</event>
<event>
 4    1  0.1653896E-001  0.1250000E+03  0.7546771E-02  0.1126479E+00
        -11   -1    0    0    0    0  0.00000000000E+00  0.00000000000E+00  0.12500000000E+03  0.12500000000E+03  0.00000000000E+00 0.  1.
         11   -1    0    0    0    0 -0.00000000000E+00 -0.00000000000E+00 -0.12500000000E+03  0.12500000000E+03  0.00000000000E+00 0. -1.
         24    1    1    2    0    0  0.20706240687E+02 -0.23133529349E+02  0.90520027961E+02  0.12500000000E+03  0.80419002446E+02 0.  1.
        -24    1    1    2    0    0 -0.20706240687E+02  0.23133529349E+02 -0.90520027961E+02  0.12500000000E+03  0.80419002446E+02 0. -1.
</event>
<event>
 4    1  0.1653896E-001  0.1250000E+03  0.7546771E-02  0.1126479E+00
        -11   -1    0    0    0    0  0.00000000000E+00  0.00000000000E+00  0.12500000000E+03  0.12500000000E+03  0.00000000000E+00 0.  1.
         11   -1    0    0    0    0 -0.00000000000E+00 -0.00000000000E+00 -0.12500000000E+03  0.12500000000E+03  0.00000000000E+00 0. -1.
         24    1    1    2    0    0  0.50977233205E+02 -0.57950402895E+02  0.56576112846E+02  0.12500000000E+03  0.80419002446E+02 0.  1.
        -24    1    1    2    0    0 -0.50977233205E+02  0.57950402895E+02 -0.56576112846E+02  0.12500000000E+03  0.80419002446E+02 0. -1.
</event>
<event>
 4    1  0.1653896E-001  0.1250000E+03  0.7546771E-02  0.1126479E+00
        -11   -1    0    0    0    0  0.00000000000E+00  0.00000000000E+00  0.12500000000E+03  0.12500000000E+03  0.00000000000E+00 0.  1.
         11   -1    0    0    0    0 -0.00000000000E+00 -0.00000000000E+00 -0.12500000000E+03  0.12500000000E+03  0.00000000000E+00 0. -1.
         24    1    1    2    0    0  0.39377648160E+02  0.18488784718E+02  0.85237020775E+02  0.12500000000E+03  0.80419002446E+02 0.  1.
        -24    1    1    2    0    0 -0.39377648160E+02 -0.18488784718E+02 -0.85237020775E+02  0.12500000000E+03  0.80419002446E+02 0. -1.
</event>
<event>
 4    1  0.1653896E-001  0.1250000E+03  0.7546771E-02  0.1126479E+00
        -11   -1    0    0    0    0  0.00000000000E+00  0.00000000000E+00  0.12500000000E+03  0.12500000000E+03  0.00000000000E+00 0.  1.
         11   -1    0    0    0    0 -0.00000000000E+00 -0.00000000000E+00 -0.12500000000E+03  0.12500000000E+03  0.00000000000E+00 0. -1.
         24    1    1    2    0    0 -0.20121037894E+02  0.33975587860E+01  0.93495371404E+02  0.12500000000E+03  0.80419002446E+02 0.  1.
        -24    1    1    2    0    0  0.20121037894E+02 -0.33975587860E+01 -0.93495371404E+02  0.12500000000E+03  0.80419002446E+02 0.  0.
</event>
<event>
 4    1  0.1653896E-001  0.1250000E+03  0.7546771E-02  0.1126479E+00
        -11   -1    0    0    0    0  0.00000000000E+00  0.00000000000E+00  0.12500000000E+03  0.12500000000E+03  0.00000000000E+00 0.  1.
         11   -1    0    0    0    0 -0.00000000000E+00 -0.00000000000E+00 -0.12500000000E+03  0.12500000000E+03  0.00000000000E+00 0. -1.
         24    1    1    2    0    0  0.22019621519E+02  0.30601982435E+02  0.87957029195E+02  0.12500000000E+03  0.80419002446E+02 0.  1.
        -24    1    1    2    0    0 -0.22019621519E+02 -0.30601982435E+02 -0.87957029195E+02  0.12500000000E+03  0.80419002446E+02 0. -1.
</event>
<event>
 4    1  0.1653896E-001  0.1250000E+03  0.7546771E-02  0.1126479E+00
        -11   -1    0    0    0    0  0.00000000000E+00  0.00000000000E+00  0.12500000000E+03  0.12500000000E+03  0.00000000000E+00 0.  1.
         11   -1    0    0    0    0 -0.00000000000E+00 -0.00000000000E+00 -0.12500000000E+03  0.12500000000E+03  0.00000000000E+00 0. -1.
         24    1    1    2    0    0 -0.51479142041E+02  0.11529474447E+02  0.79842051572E+02  0.12500000000E+03  0.80419002446E+02 0.  1.
        -24    1    1    2    0    0  0.51479142041E+02 -0.11529474447E+02 -0.79842051572E+02  0.12500000000E+03  0.80419002446E+02 0. -1.
</event>
<event>
 4    1  0.1653896E-001  0.1250000E+03  0.7546771E-02  0.1126479E+00
        -11   -1    0    0    0    0  0.00000000000E+00  0.00000000000E+00  0.12500000000E+03  0.12500000000E+03  0.00000000000E+00 0.  1.
         11   -1    0    0    0    0 -0.00000000000E+00 -0.00000000000E+00 -0.12500000000E+03  0.12500000000E+03  0.00000000000E+00 0. -1.
         24    1    1    2    0    0  0.28341503515E+01 -0.35799305874E+02  0.88702656873E+02  0.12500000000E+03  0.80419002446E+02 0. -1.
        -24    1    1    2    0    0 -0.28341503515E+01  0.35799305874E+02 -0.88702656873E+02  0.12500000000E+03  0.80419002446E+02 0. -1.
</event>
<event>
 4    1  0.1653896E-001  0.1250000E+03  0.7546771E-02  0.1126479E+00
        -11   -1    0    0    0    0  0.00000000000E+00  0.00000000000E+00  0.12500000000E+03  0.12500000000E+03  0.00000000000E+00 0.  1.
         11   -1    0    0    0    0 -0.00000000000E+00 -0.00000000000E+00 -0.12500000000E+03  0.12500000000E+03  0.00000000000E+00 0. -1.
         24    1    1    2    0    0 -0.19526661274E+02  0.86675228330E+02  0.35551347922E+02  0.12500000000E+03  0.80419002446E+02 0.  0.
        -24    1    1    2    0    0  0.19526661274E+02 -0.86675228330E+02 -0.35551347922E+02  0.12500000000E+03  0.80419002446E+02 0.  0.
</event>
<event>
 4    1  0.1653896E-001  0.1250000E+03  0.7546771E-02  0.1126479E+00
        -11   -1    0    0    0    0  0.00000000000E+00  0.00000000000E+00  0.12500000000E+03  0.12500000000E+03  0.00000000000E+00 0.  1.
         11   -1    0    0    0    0 -0.00000000000E+00 -0.00000000000E+00 -0.12500000000E+03  0.12500000000E+03  0.00000000000E+00 0. -1.
         24    1    1    2    0    0 -0.14053615838E+01 -0.15681973997E+02  0.94392185566E+02  0.12500000000E+03  0.80419002446E+02 0.  1.
        -24    1    1    2    0    0  0.14053615838E+01  0.15681973997E+02 -0.94392185566E+02  0.12500000000E+03  0.80419002446E+02 0. -1.
</event>
<event>
 4    1  0.1653896E-001  0.1250000E+03  0.7546771E-02  0.1126479E+00
        -11   -1    0    0    0    0  0.00000000000E+00  0.00000000000E+00  0.12500000000E+03  0.12500000000E+03  0.00000000000E+00 0.  1.
         11   -1    0    0    0    0 -0.00000000000E+00 -0.00000000000E+00 -0.12500000000E+03  0.12500000000E+03  0.00000000000E+00 0. -1.
         24    1    1    2    0    0  0.59220088506E+02  0.71811324131E+02  0.22223836066E+02  0.12500000000E+03  0.80419002446E+02 0.  1.
        -24    1    1    2    0    0 -0.59220088506E+02 -0.71811324131E+02 -0.22223836066E+02  0.12500000000E+03  0.80419002446E+02 0.  0.
</event>
<event>
 4    1  0.1653896E-001  0.1250000E+03  0.7546771E-02  0.1126479E+00
        -11   -1    0    0    0    0  0.00000000000E+00  0.00000000000E+00  0.12500000000E+03  0.12500000000E+03  0.00000000000E+00 0.  1.
         11   -1    0    0    0    0 -0.00000000000E+00 -0.00000000000E+00 -0.12500000000E+03  0.12500000000E+03  0.00000000000E+00 0. -1.
         24    1    1    2    0    0  0.43505102412E+02  0.25545034711E+02  0.81317533849E+02  0.12500000000E+03  0.80419002446E+02 0.  1.
        -24    1    1    2    0    0 -0.43505102412E+02 -0.25545034711E+02 -0.81317533849E+02  0.12500000000E+03  0.80419002446E+02 0. -1.
</event>
<event>
 4    1  0.1653896E-001  0.1250000E+03  0.7546771E-02  0.1126479E+00
        -11   -1    0    0    0    0  0.00000000000E+00  0.00000000000E+00  0.12500000000E+03  0.12500000000E+03  0.00000000000E+00 0.  1.
         11   -1    0    0    0    0 -0.00000000000E+00 -0.00000000000E+00 -0.12500000000E+03  0.12500000000E+03  0.00000000000E+00 0. -1.
         24    1    1    2    0    0 -0.28177524567E+02 -0.89629290078E+02 -0.18176950101E+02  0.12500000000E+03  0.80419002446E+02 0.  1.
        -24    1    1    2    0    0  0.28177524567E+02  0.89629290078E+02  0.18176950101E+02  0.12500000000E+03  0.80419002446E+02 0.  0.
</event>
<event>
 4    1  0.1653896E-001  0.1250000E+03  0.7546771E-02  0.1126479E+00
        -11   -1    0    0    0    0  0.00000000000E+00  0.00000000000E+00  0.12500000000E+03  0.12500000000E+03  0.00000000000E+00 0.  1.
         11   -1    0    0    0    0 -0.00000000000E+00 -0.00000000000E+00 -0.12500000000E+03  0.12500000000E+03  0.00000000000E+00 0. -1.
         24    1    1    2    0    0 -0.58046439965E+02 -0.23071296287E+02  0.72499035446E+02  0.12500000000E+03  0.80419002446E+02 0.  1.
        -24    1    1    2    0    0  0.58046439965E+02  0.23071296287E+02 -0.72499035446E+02  0.12500000000E+03  0.80419002446E+02 0. -1.
</event>
<event>
 4    1  0.1653896E-001  0.1250000E+03  0.7546771E-02  0.1126479E+00
        -11   -1    0    0    0    0  0.00000000000E+00  0.00000000000E+00  0.12500000000E+03  0.12500000000E+03  0.00000000000E+00 0.  1.
         11   -1    0    0    0    0 -0.00000000000E+00 -0.00000000000E+00 -0.12500000000E+03  0.12500000000E+03  0.00000000000E+00 0. -1.
         24    1    1    2    0    0 -0.14822693562E+02  0.44238142051E+02  0.83552729393E+02  0.12500000000E+03  0.80419002446E+02 0.  1.
        -24    1    1    2    0    0  0.14822693562E+02 -0.44238142051E+02 -0.83552729393E+02  0.12500000000E+03  0.80419002446E+02 0. -1.
</event>
<event>
 4    1  0.1653896E-001  0.1250000E+03  0.7546771E-02  0.1126479E+00
        -11   -1    0    0    0    0  0.00000000000E+00  0.00000000000E+00  0.12500000000E+03  0.12500000000E+03  0.00000000000E+00 0.  1.
         11   -1    0    0    0    0 -0.00000000000E+00 -0.00000000000E+00 -0.12500000000E+03  0.12500000000E+03  0.00000000000E+00 0. -1.
         24    1    1    2    0    0  0.69558338806E+01  0.13408590671E+02  0.94496614314E+02  0.12500000000E+03  0.80419002446E+02 0.  1.
        -24    1    1    2    0    0 -0.69558338806E+01 -0.13408590671E+02 -0.94496614314E+02  0.12500000000E+03  0.80419002446E+02 0. -1.
</event>
<event>
 4    1  0.1653896E-001  0.1250000E+03  0.7546771E-02  0.1126479E+00
        -11   -1    0    0    0    0  0.00000000000E+00  0.00000000000E+00  0.12500000000E+03  0.12500000000E+03  0.00000000000E+00 0.  1.
         11   -1    0    0    0    0 -0.00000000000E+00 -0.00000000000E+00 -0.12500000000E+03  0.12500000000E+03  0.00000000000E+00 0. -1.
         24    1    1    2    0    0 -0.26487346501E+02 -0.56564840534E+01  0.91783488216E+02  0.12500000000E+03  0.80419002446E+02 0.  1.
        -24    1    1    2    0    0  0.26487346501E+02  0.56564840534E+01 -0.91783488216E+02  0.12500000000E+03  0.80419002446E+02 0. -1.
</event>
<event>
 4    1  0.1653896E-001  0.1250000E+03  0.7546771E-02  0.1126479E+00
        -11   -1    0    0    0    0  0.00000000000E+00  0.00000000000E+00  0.12500000000E+03  0.12500000000E+03  0.00000000000E+00 0.  1.
         11   -1    0    0    0    0 -0.00000000000E+00 -0.00000000000E+00 -0.12500000000E+03  0.12500000000E+03  0.00000000000E+00 0. -1.
         24    1    1    2    0    0  0.74283964219E+02  0.30111258640E+02  0.52277995453E+02  0.12500000000E+03  0.80419002446E+02 0. -1.
        -24    1    1    2    0    0 -0.74283964219E+02 -0.30111258640E+02 -0.52277995453E+02  0.12500000000E+03  0.80419002446E+02 0.  1.
</event>
<event>
 4    1  0.1653896E-001  0.1250000E+03  0.7546771E-02  0.1126479E+00
        -11   -1    0    0    0    0  0.00000000000E+00  0.00000000000E+00  0.12500000000E+03  0.12500000000E+03  0.00000000000E+00 0.  1.
         11   -1    0    0    0    0 -0.00000000000E+00 -0.00000000000E+00 -0.12500000000E+03  0.12500000000E+03  0.00000000000E+00 0. -1.
         24    1    1    2    0    0  0.59766478160E+02 -0.26775980506E+02  0.69776779819E+02  0.12500000000E+03  0.80419002446E+02 0.  0.
        -24    1    1    2    0    0 -0.59766478160E+02  0.26775980506E+02 -0.69776779819E+02  0.12500000000E+03  0.80419002446E+02 0.  0.
</event>
<event>
 4    1  0.1653896E-001  0.1250000E+03  0.7546771E-02  0.1126479E+00
        -11   -1    0    0    0    0  0.00000000000E+00  0.00000000000E+00  0.12500000000E+03  0.12500000000E+03  0.00000000000E+00 0.  1.
         11   -1    0    0    0    0 -0.00000000000E+00 -0.00000000000E+00 -0.12500000000E+03  0.12500000000E+03  0.00000000000E+00 0. -1.
         24    1    1    2    0    0 -0.74985467332E+01  0.28907006169E+02  0.90917219694E+02  0.12500000000E+03  0.80419002446E+02 0.  1.
        -24    1    1    2    0    0  0.74985467332E+01 -0.28907006169E+02 -0.90917219694E+02  0.12500000000E+03  0.80419002446E+02 0. -1.
</event>
<event>
 4    1  0.1653896E-001  0.1250000E+03  0.7546771E-02  0.1126479E+00
        -11   -1    0    0    0    0  0.00000000000E+00  0.00000000000E+00  0.12500000000E+03  0.12500000000E+03  0.00000000000E+00 0.  1.
         11   -1    0    0    0    0 -0.00000000000E+00 -0.00000000000E+00 -0.12500000000E+03  0.12500000000E+03  0.00000000000E+00 0. -1.
         24    1    1    2    0    0  0.74307934219E+02  0.35766287842E+02  0.48547786889E+02  0.12500000000E+03  0.80419002446E+02 0.  1.
        -24    1    1    2    0    0 -0.74307934219E+02 -0.35766287842E+02 -0.48547786889E+02  0.12500000000E+03  0.80419002446E+02 0. -1.
</event>
<event>
 4    1  0.1653896E-001  0.1250000E+03  0.7546771E-02  0.1126479E+00
        -11   -1    0    0    0    0  0.00000000000E+00  0.00000000000E+00  0.12500000000E+03  0.12500000000E+03  0.00000000000E+00 0.  1.
         11   -1    0    0    0    0 -0.00000000000E+00 -0.00000000000E+00 -0.12500000000E+03  0.12500000000E+03  0.00000000000E+00 0. -1.
         24    1    1    2    0    0 -0.47374230092E+02  0.57293144613E+02  0.60257463846E+02  0.12500000000E+03  0.80419002446E+02 0.  1.
        -24    1    1    2    0    0  0.47374230092E+02 -0.57293144613E+02 -0.60257463846E+02  0.12500000000E+03  0.80419002446E+02 0. -1.
</event>
<event>
 4    1  0.1653896E-001  0.1250000E+03  0.7546771E-02  0.1126479E+00
        -11   -1    0    0    0    0  0.00000000000E+00  0.00000000000E+00  0.12500000000E+03  0.12500000000E+03  0.00000000000E+00 0.  1.
         11   -1    0    0    0    0 -0.00000000000E+00 -0.00000000000E+00 -0.12500000000E+03  0.12500000000E+03  0.00000000000E+00 0. -1.
         24    1    1    2    0    0  0.35311651485E+02  0.12552955150E+02  0.88052794572E+02  0.12500000000E+03  0.80419002446E+02 0.  1.
        -24    1    1    2    0    0 -0.35311651485E+02 -0.12552955150E+02 -0.88052794572E+02  0.12500000000E+03  0.80419002446E+02 0. -1.
</event>
